240
Lattice="16.1353737134 0.0 0.0 0.0 16.1353737134 0.0 0.0 0.0 16.1353737134" Properties=species:S:1:pos:R:3:masses:R:1:forces:R:3 energy=-103420.47404752 pbc="T T T"
Si       2.81208983      10.18163607       9.14485738      28.08550000      -0.89857406      -0.75836512       3.91207044 
Si      10.08470622       9.42573355       0.71742802      28.08550000       0.17696749       2.24292315      -3.31074315 
Si      10.84808704       3.85435392       7.57468844      28.08550000      -0.97984637       0.64902536       2.19607816 
Si       4.42654298       3.04753533      10.87627587      28.08550000      -3.76850955      -5.82453587       2.11057664 
Si       4.28630899      12.69751858       2.31862022      28.08550000       2.13117632      -1.74483491      -2.18302364 
Si       0.56392604      12.39195277       9.59664345      28.08550000      -4.36697983      -0.06475966      -2.12586468 
Si       2.09651580       5.21474881       7.31325054      28.08550000      -2.25721797      -4.92929628      -3.94779720 
Si       7.19155107       3.13296655      10.97714185      28.08550000      -2.48952742       4.94811881      -3.42431752 
Si       1.12603839       2.99092847      12.82573793      28.08550000       2.31709304       2.19980189       0.04814905 
Si      10.92615267       3.16147280       0.48341532      28.08550000       2.19262286      -5.37703357      -4.16157157 
Si      16.07223070      12.35434958       3.78711336      28.08550000      -3.76314135      -1.82019086       0.88558433 
Si      14.48195395      11.18439548       7.72819809      28.08550000       2.47888382       3.37644821      -4.70264120 
Si       7.00919832       8.40123215      10.98495410      28.08550000      -8.36502075      -1.41425610      -2.17937011 
Si      10.77036852       4.46901681      10.54670072      28.08550000      -2.40338004       5.44791966      -0.15886435 
Si       2.92463768       6.63610804      15.97692722      28.08550000       1.21330742      -1.64838615       2.20056679 
Si      15.78439907       0.14982115      13.37090133      28.08550000       0.96802881       1.05753534      -0.99980507 
Si       4.00492691       2.23747683      13.92561446      28.08550000      -1.80352754       0.90593873      -1.09176032 
Si      14.46661309      15.11180205      15.85435758      28.08550000      -0.22786993       3.58004615       5.28870384 
Si      13.44039232       1.43886313      11.88535813      28.08550000       4.66037535      -2.61258067      -1.34301726 
Si      11.75837310      11.55326039       2.13131893      28.08550000       4.95028805       0.19775485       2.87967098 
Si      14.44354956      12.37722685       0.86738441      28.08550000       0.72590546      -5.87503542       3.43128830 
Si       6.61260183       5.62108051       4.30327821      28.08550000      -0.61681535       3.92313132       2.06025758 
Si       0.72738998      15.20559741       8.71467248      28.08550000       4.33042131      -0.02262057      -0.07213770 
Si       2.01653309       7.08238947       9.59773942      28.08550000       1.85069031       1.30797209       1.18030937 
Si      15.46422205       1.50459638       9.41306761      28.08550000      -3.02330128       1.52134846      -3.76128501 
Si       9.14641743       7.69104311      13.07243892      28.08550000      -1.80824963       0.05141795       1.27092584 
Si      10.84464704       0.81170801      13.27597913      28.08550000      -3.49420756      -0.18061280       1.07308974 
Si      16.08719640       8.12944022       1.85243573      28.08550000      -2.01495295      -1.10259161      -0.56625795 
Si      10.87095941       6.83634706       8.47264891      28.08550000      -0.33895804      -1.57224319       3.87009075 
Si       2.58959079      13.65537545       4.61680147      28.08550000       2.22988251      -3.03516718       3.53624073 
Si       2.78882498       7.67067680       3.00426633      28.08550000      -0.94442891       0.12812141      -1.93702898 
Si       7.55706933       8.73219786      15.68488906      28.08550000      -2.93342220      -1.19470060       0.60904959 
Si       5.05449834       1.51582812       2.17739570      28.08550000      -0.60553849      -0.12716753       0.63365325 
Si      15.86206397       2.76856498       3.11480768      28.08550000      -2.89168368      -0.68013005      -0.52970818 
Si       1.82374708       3.17214701       9.72286744      28.08550000       3.14296993      -3.86484493       3.27891804 
Si       1.99897420       0.06145094       6.13622462      28.08550000      -6.92873545      -0.96752487       0.48357256 
Si       8.78960973       2.46897442      14.72702045      28.08550000       3.31914166      -0.65820008      -4.43143893 
Si      14.22766977       0.16647283       2.65118801      28.08550000      -0.87035183       0.54414441      -1.65907448 
Si       3.25835274      10.91174483       6.42181041      28.08550000      -1.79305955       0.95279117     -12.48708064 
Si      15.08450339       7.93039985      13.79553212      28.08550000      -2.81028385       0.31281120      -1.22079550 
Si      10.17966536       7.48455027       3.00275953      28.08550000       1.57513773       7.20760140       4.36748659 
Si       4.78195429       4.01588303       0.15772177      28.08550000      -0.62578927      -0.27078678       0.19631375 
Si       2.57464545       1.96065560       4.10989276      28.08550000       1.20966545       3.41244417      -3.75125077 
Si       7.97457460       2.08114753       3.32741816      28.08550000       1.52993157       3.83862174       2.23076234 
Si       9.28230650      15.59218299       2.22322375      28.08550000      -0.62454640       2.11324082      -3.46660085 
Si       3.88572513      13.15778669      12.95414699      28.08550000       1.06545099       0.50388325       5.17514464 
Si       7.73777992       0.68435048      12.89991160      28.08550000       4.79744163       2.99936663      -1.15331433 
Si       7.88919423       7.86646726       7.98158888      28.08550000       1.07146429      -3.26674258       1.23744802 
Si      15.26635971       6.87917856      10.84452706      28.08550000       0.20249725      -0.18422417      -0.48226593 
Si      13.38330661       4.42684215      12.04412497      28.08550000       1.60561945       5.16785171       3.54462818 
Si       8.54114901       4.59574521      12.75734172      28.08550000       2.82367184       2.25915401       1.38755751 
Si       5.02019346       9.96488809       3.89269521      28.08550000      -0.27918709       1.58775362      -0.42369080 
Si      11.61764779       0.26603647       0.15691787      28.08550000       1.70192834      -0.76050916      -3.69967649 
Si       7.24932844       5.90734191       1.28472750      28.08550000      -1.74244584       1.85867487      -4.69335746 
Si       6.75095871       5.03887106       8.44990914      28.08550000      -0.17324684      -6.57920118       2.38762226 
Si      11.61956422      14.45143861       3.48127493      28.08550000       4.16722697      -3.38431861      -1.13973119 
Si      15.28093498       5.16223144       0.90338736      28.08550000       1.70544330      -4.37744216      -1.07882947 
Si       0.07889448      10.16015244      15.59556913      28.08550000      -0.41513314      -0.85786861       2.56909432 
Si       1.21087472      14.25808315      11.66597876      28.08550000       2.92823989      -1.30666520      -5.49769313 
Si       5.36710436      15.63179383      14.32413128      28.08550000       2.48610297       5.05410688       2.97122513 
Si      13.56232988      13.36088095       5.60373221      28.08550000       6.58390398      -0.07673097       4.83974733 
Si      15.43483583       4.76894697       5.57255705      28.08550000      -1.61818134      -1.53061780      -1.29982710 
Si       3.53713843       4.91552434       4.65387763      28.08550000       2.08295220       3.82228649      -0.30627032 
Si      12.57879180       5.21506733      15.14286990      28.08550000       3.42126794       0.57415381       3.74099798 
Si       7.69636030       8.48467671       4.97341385      28.08550000      -1.09543263      -1.65747808       0.46102604 
Si       8.00634913       3.53954177       6.07624231      28.08550000      -1.56077915      -0.64768530       0.02822608 
Si       0.38697241       5.47401164      14.52390622      28.08550000       1.78974643       0.70530835      -2.66259043 
Si      14.60615831       7.80651216       5.62873932      28.08550000      -2.15454636      -3.15373026      -0.15045761 
Si      13.08361317       8.74264032       3.26471881      28.08550000       1.79602840       4.61955626      -2.38835605 
Si       2.81712891      11.79093385      15.73342227      28.08550000      -0.42594154       2.34858674       1.28259839 
Si       4.50538677       9.25310450      14.89936388      28.08550000      -4.65552393       0.66110569      -0.71659729 
Si      13.63740018       8.31185743       8.36810334      28.08550000      -2.35197366      -5.20132722      -0.88467288 
Si      11.82279558       7.96412447      14.51571050      28.08550000       0.48383199       2.59763716      -2.58453019 
Si      14.89322431      16.07606883       5.75650766      28.08550000      -3.52783810       0.80619998       0.03299240 
Si       4.72676865       5.96689370      10.58380469      28.08550000      -0.15293796      -1.19842793      -0.38582333 
Si       9.59509653       4.71639659       2.17474347      28.08550000      -2.20433475       0.46374370       0.69491030 
Si      13.74064142       2.80750974       7.10456515      28.08550000      -1.35537398      -5.14494061      -2.63204829 
Si       6.15276210      15.04150757       1.23249232      28.08550000       7.12706134      -5.05615065      -3.98075232 
Si       4.73754145      10.46612442      11.76428537      28.08550000      -1.22667638      -3.86173492       2.72415446 
Si       0.51764545       9.97206185       5.72192349      28.08550000       0.70897037       1.06817353       0.21495631 
O      11.76784375       7.90118372       3.25649961      15.99940000      -2.21200126      -2.67302216       0.21847177 
O       9.55354396       4.11593519      11.55328099      15.99940000       1.20000453      -0.45294121       0.49228577 
O      15.50307089      15.70905697      14.84092721      15.99940000       1.51210714       0.47659510      -0.49539809 
O      13.11693856      15.96735870      15.75301307      15.99940000      -0.24087174      -1.28518466      -0.02191325 
O       8.78510740       5.45593850       0.98269628      15.99940000      -0.85638791      -0.28305686      -1.00607394 
O       3.30903017       2.32398159       9.89002932      15.99940000      -1.20290962       1.58727411       0.36260190 
O      13.49293783      12.16022234       6.67883203      15.99940000      -0.58030080      -2.21958267       2.73987033 
O       7.65838110       4.68343386       4.99887171      15.99940000       1.65697337       0.42172673      -0.41386867 
O      14.47034351       2.45987356       8.40834638      15.99940000       1.93475844      -1.30775586       3.49997249 
O       4.56157947       2.56789935       1.05616148      15.99940000       0.26712939       1.47908775      -0.02330834 
O       1.28378564      15.12302488      10.24887643      15.99940000       1.73364496       1.53136110       1.82828418 
O      14.27868637      14.65046511       6.53264516      15.99940000       0.31631536       1.75102895      -1.38617142 
O       1.06289035       8.26135120       2.99304383      15.99940000       3.10925274      -0.87316899       1.90078980 
O      12.76780660      15.31099812       2.47143068      15.99940000      -1.85434205       0.08481426       1.88507547 
O       4.87334185      11.20609918       2.74318884      15.99940000       1.17344864      -0.33132469       0.48447682 
O       6.41466361      16.08343670      13.11969255      15.99940000      -2.00313487      -2.66399425      -0.78847145 
O       1.68505640      11.32778189       9.36841416      15.99940000       0.18064725      -0.89931196       0.90059417 
O       4.30576092       0.81612849      14.51016767      15.99940000       1.65956865      -3.72277323       1.16164264 
O      12.08621950       2.96288256       7.06861374      15.99940000       0.03189736       0.20560495       0.11594724 
O       6.07986526       9.63779844      11.62046200      15.99940000       3.29274698      -0.69207977      -1.57656881 
O       4.65607428       3.35011655      14.82922028      15.99940000       1.54607347       1.25652586       0.46649786 
O       8.54623183       3.91946763      14.22913900      15.99940000      -1.43102072       2.90864448      -1.09621656 
O      15.91141012       6.53056267       1.34284301      15.99940000       0.18234958       1.94213622       0.97073978 
O       7.09948616       7.50192053       0.58239021      15.99940000       0.73472923      -2.05264121       0.22883949 
O       5.79085788       6.98539404      11.00955850      15.99940000       3.47514900       4.04082948       2.83337878 
O       3.68667815       5.18913172       0.06848619      15.99940000      -0.73303487      -0.03354158       0.41081446 
O       7.72710017       1.37901765      14.38278395      15.99940000      -0.93544908      -0.08047810       1.45264652 
O       0.57396608      13.63862372       8.58460553      15.99940000       0.30090648      -0.53268526      -2.44598862 
O       0.29332944       0.15854476       5.95785248      15.99940000       2.02346356      -0.27924880      -0.16833552 
O      14.46931949       8.46832517       2.34552629      15.99940000       0.42526148      -0.27272539      -0.02486925 
O       1.20903618      13.23949096       4.05990941      15.99940000      -1.16632128       1.69059878      -2.22681879 
O       4.62056009      14.51943950      13.67051201      15.99940000      -2.73577842      -5.63954989      -3.49405484 
O       2.75440531      12.35377631       5.77315427      15.99940000       0.14546402       1.94447875       0.61111033 
O       0.75580413       6.49022977      10.36203717      15.99940000      -3.84532820       0.53683296       0.57045116 
O      12.92862429      12.23610754       1.32821760      15.99940000       0.79341543       1.29271131      -2.29620206 
O      10.77683359      10.77258687       1.31942109      15.99940000      -5.46350234      -2.52370869      -4.09347308 
O      10.54034249      15.62285437       0.93882425      15.99940000      -4.77426776      -2.21438416       3.90844750 
O      13.54022441       2.91547538      12.29095577      15.99940000       1.88950394       0.18503895       2.94300779 
O      10.14304419       2.14430936      13.72203620      15.99940000      -0.19421085       4.02016527       0.36691878 
O       6.56976164       1.96709154       2.66201423      15.99940000      -3.41909741       0.14664981      -0.40970580 
O       7.19027894       4.35297684      12.06688444      15.99940000      -3.45341521       0.04034087       0.88357501 
O       3.86229868       7.72212362      15.35554690      15.99940000       1.94179992       3.48073009      -2.63286282 
O       3.67592134      10.56134652      15.68791604      15.99940000       4.46179363      -7.41928367      -0.07147050 
O      14.35151825       7.76217364       9.70368976      15.99940000       1.69708978      -1.22733870       1.97260816 
O      10.10192624      14.95297264       3.40404497      15.99940000       0.59494375      -0.91463805       2.01683062 
O       8.95347731       8.10664071       4.03949784      15.99940000       1.92243694       1.14132810       0.30412679 
O       8.48359597       9.75571312       0.40925043      15.99940000       0.56362411       0.61271727      -0.84095744 
O      12.49657957      14.12700817       4.89021491      15.99940000      -6.23395139       2.94441804      -3.59664288 
O      14.86663226      10.89899721       0.12690404      15.99940000       0.90035300       0.90589167      -1.08066987 
O       6.96245851       6.06423021       2.80741128      15.99940000      -0.26199078      -0.69976480       0.27017743 
O      15.94203823       3.91388882       1.97578189      15.99940000      -0.84753946       1.58978659      -0.77920674 
O       8.80067560       3.39341220       2.57934241      15.99940000      -2.04147722      -0.89038252       2.32715043 
O       1.62457910       6.23890876      15.18429933      15.99940000       0.42297192       1.35866988      -1.78766512 
O       9.84169460       6.06617210       3.04475280      15.99940000      -0.24693491      -8.06405539       1.21249289 
O      15.87217060      10.89827165       6.77851781      15.99940000      -1.22075102       0.03790783       1.65232482 
O      13.59516897       8.76890895       4.77185241      15.99940000       0.44068810      -0.67516499       1.85768603 
O       0.76345429       2.14256945       9.23029208      15.99940000      -1.11989641      -1.44993735      -0.83411702 
O       0.43117592      12.98424772      11.07320721      15.99940000      -0.69101147      -2.02421072       0.98322789 
O       3.44495041      12.52403583      14.42454532      15.99940000      -1.03540225       1.22616525      -0.59552096 
O       8.16869692       8.06003344      11.84133039      15.99940000       4.30653139       0.49567680       1.28374228 
O      14.37993673       1.60176615      10.53798472      15.99940000      -1.14294481      -1.13519114       1.81055385 
O       6.79456035       7.17921765       4.94838009      15.99940000      -0.94294564      -4.01977163       0.87732106 
O       9.47659785       2.69510837      16.05637196      15.99940000       1.30013923      -0.42861729       5.62427856 
O      14.68980935      16.01318472       4.09257759      15.99940000       0.98739924      -2.23714228       3.81741373 
O      14.46080267       1.82406827       2.76896780      15.99940000       0.85867414      -0.15114924      -1.54871656 
O       4.71231435      11.97520231      12.21746998      15.99940000       0.43136014       2.52298184      -0.28462549 
O      11.96917149       8.04985281       8.39329259      15.99940000       0.75932748      -0.15832416      -0.02172042 
O       4.34690923       2.38094336      12.41734816      15.99940000       1.94284713      -0.07052536      -3.32371206 
O       0.43563715      10.90679514       4.42828006      15.99940000      -0.71776097       0.58519644      -2.80390571 
O       7.48985239       6.19144845       7.75819426      15.99940000       0.77144895       3.84834745      -1.57601911 
O       5.13368933       5.12053617       4.59174596      15.99940000       1.21925875      -0.80205510      -0.40686164 
O       3.09884184      12.39854003       1.22454021      15.99940000      -0.81584162       0.52507839      -2.06086128 
O      15.30405938       6.50132117      14.46845387      15.99940000      -0.76674872       1.22308635      -0.31598703 
O      15.63576083       0.02384587       8.79562579      15.99940000      -2.07138892       0.45634869      -0.29443219 
O       1.94257833      15.83857921       7.59496124      15.99940000      -0.34061383      -2.07563021       7.18316641 
O       2.71576660       7.23338862       1.32324169      15.99940000       0.08559717       0.64755443       3.72792906 
O       5.97893733       9.28471865      15.32460851      15.99940000       4.87774952       0.21205276       0.94348943 
O      15.14780285      11.83782102       8.98816274      15.99940000       1.22074099       0.64165504       3.11182925 
O       2.11070452       4.24851127       8.69410927      15.99940000       0.10849464       2.32728695      -4.11863106 
O      15.36265397       3.28011484       4.56269152      15.99940000       0.78156624       4.28036296       1.68482228 
O      10.94184276       6.15432007      10.09104466      15.99940000      -0.87769002      -0.31227616      -1.32925569 
O      10.96314187       0.26634124      14.79158909      15.99940000       0.71817724      -1.58616288      -0.81140723 
O      11.88658424       6.63727927      15.33885465      15.99940000      -0.10859620      -0.47995296       0.91248630 
O       2.13276690       9.77443103       5.97632671      15.99940000      -1.02757633      -0.36183468       1.30728072 
O      12.54917213      10.31731160       2.79601071      15.99940000       1.69024833      -3.21876400       2.41641604 
O      16.11769478       4.59015421      15.65172687      15.99940000      -2.72755012      -4.04696619       6.07355955 
O       6.46328942       9.33384945       4.36121287      15.99940000      -0.06983167       3.08788791      -1.33917269 
O      14.10412661       7.30811107       7.09660753      15.99940000      -0.60914884       1.75233070       1.57257306 
O      14.94215136       6.28663300       5.08960261      15.99940000      -0.40189890      -1.61387526      -1.49351395 
O       3.30823839       6.66901061      10.50330589      15.99940000      -2.04089049       1.30061771      -0.72788315 
O      10.68089938       7.96102653      13.18599727      15.99940000       3.97755849       0.86548833       0.72069537 
O       8.81824152       0.90124228       2.80929539      15.99940000       2.66757837      -1.68376915      -0.23969109 
O       8.30715919       8.34905143      14.30793161      15.99940000      -0.11167432       0.18306563       0.51855936 
O       4.29646562       9.60046249      13.28500991      15.99940000      -0.44099792       0.68446930      -1.31261345 
O      14.42763513       0.31935238      12.58885758      15.99940000      -2.39311568       0.04518919       0.22188877 
O       4.32154578      10.52304714       5.20403827      15.99940000       0.80735081       0.70419403       3.11225245 
O       5.29087589      16.09614875       1.71286842      15.99940000      -5.31954088       7.85683040       3.53218841 
O       6.06834613       4.89309758       0.61150744      15.99940000       2.16076920       0.11702093       0.59862943 
O      14.85051238      12.89274959       4.80529777      15.99940000       1.96539802      -0.84265539      -3.13045792 
O       0.74281206       5.09313470       6.14616538      15.99940000       3.23598807      -0.08445997       2.88302575 
O      15.36436853      12.26420963       2.26495038      15.99940000       1.18389426       0.91065541       0.35396942 
O      14.47424625       4.09433375       6.70481677      15.99940000       0.88025032       4.19246440      -1.50707215 
O      13.90087426       9.77764696       8.02234855      15.99940000      -1.22326299       0.97186387       0.23036775 
O       7.94675468       8.75511000       6.65583742      15.99940000      -0.41693445       0.79753331      -1.59443386 
O       2.16608467       6.45393028       8.14828228      15.99940000       0.14014826       5.31207080       0.26519926 
O       3.42880183      10.92012478       7.87769224      15.99940000       2.97671289      -0.81524846       5.79638281 
O       3.14402657       3.66426351       3.88733342      15.99940000      -2.49167712      -5.70431675      -0.70516308 
O      11.09249459       5.45092872       7.58938573      15.99940000       0.48299843       2.23638020      -1.36680305 
O       2.01600528       8.72383258       9.36054555      15.99940000       0.80847129       1.16653417      -0.64396723 
O      10.91402589       8.92528780      15.46134996      15.99940000      -0.10800973       1.53921685       1.96257161 
O       9.37163339       0.28774742      12.69381340      15.99940000      -1.89442375      -2.93913828      -1.52827938 
O      14.96370325      15.65294919       1.36665184      15.99940000       0.54787636      -0.65036259      -2.10603170 
O      14.04684930       1.41142107       6.16451283      15.99940000       0.11899605      -0.98327597       0.06308870 
O      11.98876762       0.92809546      12.13303983      15.99940000      -2.12336788      -1.19150087      -0.05162775 
O      11.42853832      12.69695448       3.14114904      15.99940000      -1.69503264       4.03776807       1.64161643 
O      13.49306011       8.35661008      14.08624418      15.99940000      -2.95298470      -0.51163847       0.17180394 
O      10.91256360       4.03819246       1.70369683      15.99940000       2.43272044       2.09765556       4.13818019 
O       1.31404731      11.23603258      15.46027895      15.99940000      -1.72507624       0.31974753      -0.21566567 
O      14.48567366       5.60474114      11.52567276      15.99940000      -1.19945329      -2.50883743      -0.74049235 
O       1.09110190       1.91388594       3.44397773      15.99940000       0.61874085      -0.07246886      -0.87525878 
O       9.38198026       7.52469129       8.48237917      15.99940000       1.89426331       0.53137785      -0.66125404 
O       2.61421275      15.15700620       5.22447334      15.99940000       2.29844123      -4.12640916      -3.06966650 
O      11.52857091       4.18196887      15.54703860      15.99940000      -2.04397967      -3.03894799       0.07810266 
O       1.30879073       3.42031154      11.21920638      15.99940000      -0.13643816       0.08191123       1.93779517 
O      12.20616165       4.34725771      11.08080044      15.99940000       0.26012519      -0.45938002      -0.57882370 
O       3.90153323       8.94265242       3.36903666      15.99940000      -2.47246172      -4.01962611      -1.57874036 
O       5.40000118       5.46793342       9.22701363      15.99940000      -0.14519714      -0.60973351      -4.03097676 
O       3.78367673       1.24752993       3.23926451      15.99940000       0.25797215       0.35941785       0.34858245 
O       7.59377678       1.92709071      11.76540996      15.99940000       2.37746795      -5.94506790       2.93143937 
O       9.42542735       3.61845822       6.82331481      15.99940000       1.10413607      -0.53601921      -0.43738346 
O       7.86790618       2.26805894       5.00916230      15.99940000       0.56956516      -0.88588104      -1.02064438 
O       7.46778561       4.20279368       9.80235141      15.99940000       1.74952280       1.44718087      -4.02814109 
O       7.15839504       8.26446535       9.39166525      15.99940000       0.16011725       1.78339323      -1.58055710 
O      15.86513445       9.20917792      14.29554587      15.99940000       1.45777819       2.03220248       0.52499920 
O       3.25509348       5.03179593       6.19130657      15.99940000      -0.70457481      -0.37046356       3.54832182 
O       3.99924810      10.27274304      10.33069764      15.99940000      -1.35572031      -0.05318327      -0.63969148 
O       0.49761448       4.51552706      13.20385174      15.99940000       0.69376513      -0.87273704       0.27468200 
O      15.42873005       7.65873635      12.22883024      15.99940000       0.53569114       2.16532366       0.10586234 
O       0.37140395       1.63992714      13.13648054      15.99940000      -3.01931273      -3.05141732       0.15264176 
O       2.39372036       1.39131488       5.56063304      15.99940000       2.77086369       5.31497460      -0.09157498 
O       2.64424179      13.71479056      12.21274073      15.99940000      -1.44463599       0.87911749      -1.62386605 
O      11.86949225       1.67621311       0.75753465      15.99940000      -1.22883560       5.56140018       0.78696144 
O      12.87854472       4.95936956      13.65717630      15.99940000       2.22922997      -0.54245288      -4.95996800 
O       3.09619599       6.30382667       3.95129372      15.99940000      -1.74100448       3.04197700      -1.87061713 
O       3.86920416      13.38520190       3.67732381      15.99940000      -0.73147755       1.68258568       0.47560163 
O       9.90506797       8.28229666       1.73526902      15.99940000      -0.50046574      -0.46552625      -1.98028805 
O       4.32830143       4.51235027      11.17980545      15.99940000      -1.03978727       5.66006189       1.91893433 
O       0.36326993      14.99453888      12.64231978      15.99940000      -2.25635176       3.22388486       4.31883515 
O       6.84468539       3.66397290       7.21673168      15.99940000      -0.52367688       1.72587431       1.58850901 
O      14.44411864      13.55389100      16.02680361      15.99940000       0.81610053       1.29261592      -2.95789885 
O      15.95386048       8.52178293       5.71717642      15.99940000       3.42149754       1.56685827       0.08605919 
O       8.99336515       6.14742438      13.03305362      15.99940000      -0.53959870      -3.28819921       0.42471950 
O       5.77878033       2.68147473      10.33025482      15.99940000       3.18787708      -2.26674750      -2.02852786 
O       2.40725649       2.43139474      13.70515283      15.99940000      -1.16127421       1.75552916       0.83110780 
O       6.23369904      15.29915823      15.73938428      15.99940000      -0.81281389      -0.24797827      -1.92706159 
O       7.78886122      15.13701730       1.78606464      15.99940000      -0.71213180      -1.45673432      -0.79124079 
O      13.73166258       5.04921919       0.43689001      15.99940000      -1.37395200       0.59226286      -1.56112239 
O       0.54932953       8.95810926       0.58335557      15.99940000      -1.07716802       1.45127767      -0.85815683 
O       5.49248630      13.67951168       1.62385811      15.99940000      -1.46216835      -3.23685171       1.00732658 
O      10.56888268       3.70333565       9.23914235      15.99940000      -0.30347244      -3.40173681      -4.15757993 
240
Lattice="16.1353737134 0.0 0.0 0.0 16.1353737134 0.0 0.0 0.0 16.1353737134" Properties=species:S:1:pos:R:3:masses:R:1:forces:R:3 energy=-103399.20787393 pbc="T T T"
Si      13.79227206       4.38550115       6.11548666      28.08550000       1.57639423       0.04606517      -0.08225422 
Si       2.93384673      14.66897266      14.58208368      28.08550000       0.72327136      -0.35442631      -0.00896004 