240
Lattice="16.4288082428 0.0 0.0 0.0 16.4288082428 0.0 0.0 0.0 16.4288082428" Properties=species:S:1:pos:R:3:masses:R:1:forces:R:3 energy=-103430.89749476 stress="4.745903252747923 -0.42675176170794504 -0.677271668701613 -0.42675176170794504 2.503580914342474 -0.25537437377628147 -0.677271668701613 -0.25537437377628147 4.387996656320681" pbc="T T T"
Si      15.75330920      14.62299656       3.88927939      28.08550000       3.48388818       5.18831281      -4.29932665 
Si      13.08208927       2.09159676       3.00352259      28.08550000      -1.34164249      -0.40573113       0.10236847 
Si       4.44051745       4.94230300       0.49503245      28.08550000       4.94994095       1.67845777      -0.27199906 
Si      11.69277223       4.76335674      14.17941591      28.08550000       3.16990250       8.29920900       0.79821670 
Si      10.40132982       0.60017742       2.97491236      28.08550000      -1.80834039       1.82740357       0.06442156 
Si       0.86447535       4.95277639      14.99602766      28.08550000      -1.48230317      -1.00995527      -1.81263387 
Si      15.91251049       2.35239527      11.55551076      28.08550000       4.64171788       0.51992333       0.14819890 
Si      11.53273113       3.37367855       6.89887605      28.08550000      -1.57895814       3.14505484       0.45626976 
Si      12.34542244       8.47088757      11.09196363      28.08550000       1.19086143      -0.26874892       2.83103033 
Si      14.79287495       5.87693423       4.85912895      28.08550000       3.47408148       1.48907186       5.25410348 
Si      16.11225686       5.39872505       1.34829302      28.08550000       1.39401715      -0.81571229       2.20032768 
Si       9.02860407       9.71812910       7.37789293      28.08550000      -0.96086597      -2.00569081      -1.85251142 
Si       8.75044191      11.76619840       4.95265651      28.08550000      -3.44832160      -0.85242481      -1.23680576 
Si       3.08713567       2.42534101       1.38092289      28.08550000      -2.16933381      -1.80243225       0.90412147 
Si       4.85698066      14.94330895       0.00281810      28.08550000       2.96652284       5.38604349      -1.60782828 
Si      15.19377089       1.16189806       4.76258543      28.08550000       2.67149004       4.99760483      -2.33708980 
Si       1.20958901      12.29225401       3.71100452      28.08550000      -8.85386793       0.84113356      -2.09389841 
Si      16.09977563      16.11640019      15.35944626      28.08550000       0.87791602       2.79011534       3.37607206 
Si       7.40871592       2.38398570      16.13242654      28.08550000       0.95179127       0.47719751       3.84470985 
Si      10.01026178       6.45890134      12.11559799      28.08550000      -0.13969497       3.48772272       2.57609209 
Si       5.77596775       4.25080692       9.06757715      28.08550000      -1.25161994      -0.08914786      -0.18455352 
Si       7.67664833       7.17928013      14.19489810      28.08550000      -1.16013649       0.51976444       1.95131789 
Si       9.75883295       0.52171138      16.22493104      28.08550000       2.71905648      -1.95217149       0.51479604 
Si       5.42266911       9.13873029       3.73310853      28.08550000       2.83949595       0.43404823       2.35998316 
Si      13.09017549      13.31567470       2.91570591      28.08550000       1.16619993       1.87904881       0.18367858 
Si       7.46323787       4.51207625       4.72942185      28.08550000      -0.70336871       5.95731638      -2.46646822 
Si      13.23358389       5.09964249       2.28329771      28.08550000       3.16721312       2.42369432      -1.70281203 
Si       0.87381859       6.89947399       9.57473015      28.08550000       2.30070123      -1.36501099       4.68204640 
Si       9.50434339      10.94451476      15.24135594      28.08550000      -1.45604629       3.49009611      -2.15908256 
Si       2.46058390       0.47932626      15.50412669      28.08550000       2.54869981      -1.25153689       0.02424242 
Si       4.64178418       4.03864514      11.89481156      28.08550000      -2.72055106       2.70144391      -1.32061729 
Si       8.51596268       5.83295628       9.67128207      28.08550000      -3.99430614       1.12423567      -3.84217500 
Si       7.22227545       7.44391480       5.93452579      28.08550000      -1.51242853       3.77332266       0.22800054 
Si       4.21793845      11.91157405       0.25197793      28.08550000       1.95410651      -2.50780488       1.18909148 
Si      12.79805317      13.71972869      13.52269094      28.08550000      -0.95164188      -2.93137329       2.99775480 
Si      13.54085200      11.54968972      15.70748632      28.08550000       0.07067114      -1.10083117      -0.75710759 
Si      14.38251596       1.25261270       0.51271534      28.08550000       1.46130266      -3.24459150      -2.56240225 
Si      11.91643044       8.63248473       8.07244193      28.08550000       1.79769988      -3.10504951      -1.75529467 
Si      11.84167025      10.76507340      13.24928945      28.08550000       2.01644779       2.03240457       4.78650749 
Si       7.53971018       4.73699475       1.63237862      28.08550000      -3.40792340      -0.60385005      -4.04354123 
Si      13.97532466       8.77519488       5.65280446      28.08550000       1.52544319      -0.14921114       1.17005169 
Si       7.03728253       8.78008617       9.69792141      28.08550000       0.50368604      -0.48593103      -2.32472562 
Si      13.06981351      10.30068217       3.10791911      28.08550000       0.36621584       1.04133250       1.32472617 
Si      14.31486130       0.25208456      13.08132828      28.08550000      -3.88800646      -0.37317222      -2.21417153 
Si       5.02393900       7.25595197       8.18586778      28.08550000       3.53337600      -2.67474095      -0.19848145 
Si      15.70696582      10.74302619       1.49927315      28.08550000       1.56958364       2.60323137      -0.62452069 
Si      14.72144466      14.70622477       0.97752671      28.08550000       1.55863871       3.67211581       2.38741683 
Si       2.22902703       2.74395605      13.40756745      28.08550000      -1.00951562      -0.39702666      -3.01523110 
Si       9.10447605       2.24341778       5.36445365      28.08550000       5.76113067      -4.89918480       2.15535909 
Si       6.26603270      11.17228163      14.48750943      28.08550000       7.99757952       2.94727685       0.65211917 
Si       3.30887860       7.02951174      11.70147743      28.08550000       0.24337419       1.00008429      -0.48312982 
Si       2.06428285       9.74776888       0.15018330      28.08550000      -1.79404171      -4.85194747      -1.18965327 
Si       6.68327498       0.59323956       4.89096027      28.08550000      -4.66205222      -2.61797150      -2.86069958 
Si       1.16324059       7.92968572      13.91406429      28.08550000      -1.16469712      -1.65642830       1.25592011 
Si       3.45776847       7.57360931       2.08024008      28.08550000      -4.98215353      -2.81205405      -1.06846792 
Si      10.02986314      14.19338451      14.84169190      28.08550000      -5.37312910      -2.65964960       0.61589310 
Si       0.55897484       7.31162102       3.47787128      28.08550000       1.63373909       0.60718991      -5.25292926 
Si       6.57690597      13.82495274       3.98089946      28.08550000       0.38938714      -0.58635087       3.19428684 
Si       8.00784263      10.24333404       2.33169529      28.08550000      -1.51941344      -0.48007432      -0.41696865 
Si      10.05846267      14.03943040       3.39924603      28.08550000       0.34428562      -0.45976003      -0.15996709 
Si      14.83464213       4.76968228      13.13593219      28.08550000      -0.26442227       1.13129797      -0.19041204 
Si       8.48359281       7.53278036       0.78017162      28.08550000      -2.93706674       5.26511243      -1.84762993 
Si       2.25410565       7.41145969       6.80562000      28.08550000      -0.95866871       0.97938177       1.10663981 
Si       7.29345910      14.13138726      14.84890588      28.08550000      -2.66727446      -1.66423905       4.19829335 
Si       5.83739305       8.84093283      12.52292846      28.08550000      -2.35878168      -0.04392421      -1.08179164 
Si       5.59788169       0.85588343       1.88356004      28.08550000       4.77720293      -3.95351713      -1.41093706 
Si       0.46066589       9.60415358       5.07707195      28.08550000       1.60551377      -0.82040172       2.72304220 
Si      11.45039590       9.92801235       0.78918180      28.08550000      -0.09036168       0.41078437      -4.21439026 
Si       1.01293887       3.25048339       3.46210303      28.08550000      -4.24177765       0.69187305      -1.41934020 
Si       4.16610508      11.97160157       3.29366370      28.08550000       4.65347193      -3.12538205       2.57382566 
Si       6.12039534       4.53682996      14.42786888      28.08550000       1.38082636      -0.31556434      -1.35291600 
Si      15.47875981       7.66443087      11.89257621      28.08550000      -3.36751851      -0.16378673       2.62470754 
Si       2.06868445       4.30992153       6.17302470      28.08550000       1.38806658      -1.80281071       2.24479954 
Si      10.96811589       5.58190416       7.85585017      28.08550000       1.74728157      -1.01185969      -1.74222653 
Si      11.49096768       6.98516472       0.45739156      28.08550000      -1.62286332      -2.62676030      -4.04197568 
Si      14.69951884       3.16848337       6.59660164      28.08550000      -1.05464722       5.62264231       2.52958186 
Si       5.12277872       3.10011463       6.11137756      28.08550000      -0.57885173       2.44591122       2.33288707 
Si       0.26610492       3.85464746       8.80260559      28.08550000       1.06472748       0.16220421       0.36550571 
Si       8.20365719      13.12035452       1.45016551      28.08550000      -2.72437892       0.80377774      -1.73702596 
Si      12.34941204       1.87055162      14.78405341      28.08550000       0.40793071      -2.10477675       1.18257502 
O       1.21177333      15.95480612      15.24271334      15.99940000       1.61286044      -1.42004391      -1.18250638 
O       1.30142695       3.76119858       7.50075350      15.99940000       0.60394492      -1.18807358       0.51211309 
O       2.27811802       7.50469894      12.84995072      15.99940000       0.00351238       0.05468556       0.16220164 
O      16.06910115       8.38323799      13.32689811      15.99940000       1.32621998       0.48785268      -1.52506499 
O      16.34250158       6.49182218       4.58504324      15.99940000      -2.15400617      -3.32943867       3.45040599 
O      13.28842708       4.94917785      13.58642269      15.99940000      -0.59282310      -0.00507690      -0.05253149 
O       0.53297145       4.99577217       0.08485197      15.99940000       0.71928564      -0.82063415       0.93735581 
O       5.41502547      15.76554569       1.30700922      15.99940000      -0.27312957      -1.26411319       0.56301450 
O       8.73306635      10.71888695       3.67942713      15.99940000       1.01420994      -0.29561232       0.80068111 
O       8.45177263       3.55203984       5.35335839      15.99940000       0.07463989       4.38609058       1.88257765 
O       6.74185242      15.29612880       4.88786966      15.99940000      -0.80282464      -0.08217734       0.03182074 
O      12.28177871      11.15239688       0.15180878      15.99940000      -1.60982166       0.45640011       2.73024283 
O       5.32926035      11.10927627      15.67638282      15.99940000      -4.62650209       0.82165231       5.04602359 
O      13.92586953      16.08480839       0.69724279      15.99940000      -3.41934835       1.83146977      -0.17598481 
O       7.93548990       1.20668837       5.50325221      15.99940000       1.54381347      -1.33899348       2.42894606 
O      15.08189115       1.00051439      11.81762254      15.99940000      -0.91628382      -2.30176541      -0.34759720 
O       1.97286254       3.89130579      14.45910055      15.99940000      -0.06088578       1.98743186       1.56528141 
O      13.56184762       2.23876804      15.88246386      15.99940000      -0.49580844      -1.32239444      -0.34682818 
O       4.51853480       8.15127153      11.76176365      15.99940000       0.18838087       0.91358004       0.70202685 
O       3.01378122       8.76205329       1.11427377      15.99940000      -1.21486499       1.43781152      -2.07016482 
O       6.22281747       7.79036527      13.65444708      15.99940000       1.64374839      -0.36941507       0.10696663 
O       9.84604229      15.31402111      15.92231899      15.99940000       0.22505637       2.16268982       1.71305196 
O      13.50424216      12.98100847      15.03777431      15.99940000      -0.15624285       4.52964272      -2.67000754 
O      11.30361878      14.16820694      14.04806659      15.99940000       4.19233431       1.49571584      -2.84579155 
O       5.53078706       1.66991504       5.55458856      15.99940000      -0.06524663      -2.55368801      -0.30439496 
O      12.28134597       6.28540494       1.63404077      15.99940000       0.62956751      -1.98548528       2.43934077 
O       9.73944966      12.90349507       4.56179282      15.99940000       2.97823396       3.29337278      -0.00998179 
O       2.68365670      12.29955701       3.54196873      15.99940000       2.55408679       0.82098279      -0.56576687 
O       6.43913763       1.72739406       0.85082821      15.99940000       2.18945166       0.21672522      -2.31439750 
O       3.58450164       3.06621774      12.57949809      15.99940000      -0.76244803      -0.51577357      -0.35713471 
O       8.57371848       8.78061807       1.85585377      15.99940000       0.54636558       0.23544543      -0.85769043 
O       4.37081222       1.66654293       1.88955831      15.99940000      -5.05875183       3.04690838       1.38318252 
O       4.58532558      10.45195287       4.01436344      15.99940000      -2.35321576       3.91027684       1.09864728 
O      13.55183369      15.12344737      13.10471606      15.99940000       1.28718678      -0.90741608      -1.01579836 
O      11.58604899       5.94669660      15.47392856      15.99940000       0.50864236      -0.70777944       0.43407086 
O       9.76945924       1.78911104       4.03516492      15.99940000       2.09438126      -1.19486593      -3.91169531 
O      12.65337857       3.64641972       2.63726298      15.99940000      -0.91795760      -0.59171804       0.64409810 
O      14.55418959       5.19161825       1.18959437      15.99940000      -3.20490318      -1.03369530      -0.02484483 
O      12.07876208       9.62686043      12.25098539      15.99940000       0.35061439      -1.79039511      -3.45875745 
O      13.06735174       3.23031223       6.68304896      15.99940000       2.51936816      -2.54788375      -0.81740768 
O      13.73165156      13.55693402       1.42586818      15.99940000      -1.22574822      -1.51381872      -0.50509886 
O       7.63676549       6.08346593       5.27404025      15.99940000       1.30791784      -1.74904998      -1.62333692 
O       3.78200417       7.72034062       7.34503966      15.99940000      -2.76312853       0.30802330      -1.04977266 
O       7.75007081       6.29779283       1.27374259      15.99940000      -2.68826958      -3.29699212       1.72765608 
O       5.78535124       4.22294242      12.90647941      15.99940000       2.21767363       0.00037461       0.89189485 
O       9.85186083      12.59269995      15.28906173      15.99940000      -0.25952895       0.39738816       0.65465068 
O       4.91647336       4.96406766      15.30114645      15.99940000      -3.69858558       1.52585637       2.91377409 
O       8.22138582       3.54210127       0.66851554      15.99940000      -0.25130348       0.76649238      -0.00455702 
O      10.54221532       9.32481390       8.00785465      15.99940000      -4.50582402       3.14918455      -1.44998749 
O      13.00074457      11.86291280       3.47084396      15.99940000      -0.82165951      -0.63524810       0.59829390 
O       7.86129884       7.40960492       9.79364892      15.99940000       1.38289610      -2.50852401      -0.25489608 
O      15.53444063      14.87762499      16.05963725      15.99940000       0.50833485      -5.31439148      -1.60533225 
O      11.95679291       0.91417948       2.93933264      15.99940000       0.01706827       0.54028441      -0.57014597 
O       3.96866550       6.25256056       1.28509387      15.99940000      -0.84507866       1.50160701      -0.40469832 
O       7.26739283       5.62196636      14.36359158      15.99940000       1.49664273       0.23124939       0.75507437 
O      10.35662607       2.31143343       6.56036030      15.99940000      -0.72484102      -0.66918050      -0.91201681 
O      15.94972767       4.53723012      14.22403732      15.99940000      -0.67457698      -1.77499035       1.28756988 
O      15.29565416       0.43141984      14.24934201      15.99940000       0.86183634      -0.23681737      -0.90554046 
O      15.75901715      15.20950790       2.21036763      15.99940000       0.47676042      -1.54153187       0.80805297 
O       1.49731372       3.94657160       4.77675574      15.99940000      -0.83344287       0.68537716      -0.11362450 
O      14.00256665       7.17260873       5.52974747      15.99940000       0.53608837      -1.34609050      -0.04001151 
O       4.04381422       5.61501087      11.66505725      15.99940000       0.00108372      -1.82132986       0.87984589 
O      11.09157380       1.09694557      15.50066011      15.99940000       1.19265478       0.17995588      -0.36234248 
O       0.98171581       2.47100990      12.35644133      15.99940000      -0.20824521      -0.65241099       0.51700899 
O       8.51492060      14.55068483      13.98899729      15.99940000       3.17834780       0.50591365      -0.84171257 
O      15.39483270       6.16994112      12.50137255      15.99940000      -0.47490949      -0.69342651      -1.51012611 
O      12.46417360       8.76320021       9.54260425      15.99940000       0.39176592       1.58253325       0.34770802 
O       6.02685682       4.18046222       5.22408190      15.99940000      -3.10112420      -1.10986448      -0.08241825 
O       4.34006151      13.50996751       0.14510686      15.99940000      -1.82253365      -3.34519414       0.11863070 
O       3.38394577       3.85682713       0.75784034      15.99940000      -2.15623455      -1.87403361      -0.61972790 
O       5.57430222       8.56296410       8.98824880      15.99940000      -0.55207395       0.14341947       1.11836327 
O       3.82241803      15.97213867      15.79757850      15.99940000      -2.77048291       0.95661800      -1.47743659 
O       9.89576090       0.56148548       1.41307071      15.99940000      -0.45228661       0.70280718       0.79473620 
O       9.60897204      13.26845707       2.03638926      15.99940000       4.71945030       0.66599824      -0.37232350 
O       5.06148120       5.63118558       8.75960208      15.99940000      -3.01311766       4.10926248      -0.57143101 
O      10.44926452      10.39924821      14.07952427      15.99940000       1.70609610       0.27193632      -3.28282792 
O       5.83917944       4.61366375       1.30734926      15.99940000       1.45546831      -0.53664039       0.38256420 
O      11.76342458       9.87388175       2.31552606      15.99940000      -1.29466638      -0.35228098       2.48373035 
O       7.92222660       4.57753878       3.12264070      15.99940000      -0.24841356      -0.96534175       3.54980715 
O      13.23652527       9.60915370       4.52444289      15.99940000      -0.51114430      -0.58253920      -0.67513208 
O       2.25488184       2.65670949       2.76174669      15.99940000       2.32963977      -1.40619158      -1.77737145 
O       7.94698600       9.70889555       8.57530576      15.99940000      -0.85019258       0.42210957       2.13497333 
O       9.86259130       6.97621080       0.62435420      15.99940000       6.87312968      -1.52411753      -0.49880146 
O      11.72291818       3.28400644      14.46723312      15.99940000      -1.88581724      -2.49472028       0.02790238 
O       8.46793820       8.49238058       6.32670896      15.99940000       0.59360215      -0.14853108       0.49833146 
O       6.62821184       3.14021994      15.00261715      15.99940000       0.34497982      -1.42359897      -0.50417044 
O       6.33057554       0.70505105       3.26995043      15.99940000       1.31882061       0.66165539       2.23536616 
O       5.74244003      10.27221211      13.37362028      15.99940000      -1.29996928      -1.98076550      -3.48969862 
O      11.59275983       4.16630146       8.31713677      15.99940000       0.41876714      -1.96903639       5.77445695 
O      15.39998486       4.05365009       7.92620001      15.99940000      -3.65009097      -2.36014591      -1.14027755 
O       0.72632859       5.23777618       9.46550726      15.99940000      -0.82816209       1.81311441       1.85209773 
O       2.52903212       1.42574955      14.20749477      15.99940000       0.87072901      -1.69371598       0.95380547 
O       6.32243146       7.06795930       7.19059650      15.99940000      -0.14293894      -0.58034400       0.56025905 
O       9.85009069      15.69696227       3.67614022      15.99940000      -0.29383569      -2.86729060       0.43127350 
O       6.68530285      12.76150424      14.28046540      15.99940000      -1.36045037      -1.21619528      -1.51030094 
O       1.69287378       8.80123102       5.96439260      15.99940000       0.12871662      -1.08749409      -0.24723779 
O       8.87770279       7.20056688      13.13031256      15.99940000       0.64494785       0.78314387      -0.82830555 
O      15.93621030       0.89924804       0.04364981      15.99940000      -0.58733406       2.02874383       0.74261968 
O       7.30095587      12.52919034       4.80453971      15.99940000      -1.51624250       0.84917468       0.91298535 
O      12.00113765       8.48466501       0.30387199      15.99940000       0.74402916      -0.44590616      -0.67773944 
O       0.04988079       6.83553638       1.98101995      15.99940000      -1.64137655       0.75610024      -0.56578230 
O       7.92331947      11.57619158       1.27504117      15.99940000      -0.59827538      -3.94172451       1.14423473 
O       4.62090350      11.62478051       1.85854116      15.99940000      -0.17479876      -0.14492280      -5.17627542 
O       2.37610121       1.24774570       0.45622208      15.99940000      -0.45902290       2.59696122       1.25708842 
O       7.78578192       7.94409719      15.71951026      15.99940000       0.91911949      -0.98660092      -0.76658031 
O      15.26759725       1.76300468       6.24609572      15.99940000       1.33618918      -1.41788032       1.70281794 
O       5.16164307       3.61352288      10.46646347      15.99940000       0.37814551      -1.28576496      -2.17544146 
O      16.33537272       2.12461908       3.85981528      15.99940000      -1.57992204      -1.59615264       1.17944676 
O       8.87275750      11.06878508       6.38599121      15.99940000       1.19407711      -0.92794017       1.71994612 
O       6.07221998       8.44930121       5.12443763      15.99940000       0.67314051      -0.19890825      -1.58131352 
O       2.09654245       7.16096727       3.05169400      15.99940000       2.67236216       0.42398545       0.37921046 
O       0.01608647       8.79808304       3.81247000      15.99940000       0.93968548      -0.08317621      -3.66778350 
O      14.41399815      10.22212783       2.30141781      15.99940000       2.10908900      -1.84004440      -0.08423962 
O      13.11661715      10.70880475      14.42952176      15.99940000      -0.68886178      -2.56122340      -3.15099178 
O       1.85831162       8.95295780      14.96253914      15.99940000       0.16203940       2.10647059       2.99791395 
O       0.30043055       4.28309644       2.37040371      15.99940000       0.21559831      -0.93027705       1.93875625 
O      13.69907486       1.58644317       4.39239249      15.99940000      -0.45635486       0.91407472       0.57260960 
O       4.40981958       8.11778241       3.11011264      15.99940000       2.47728537      -0.36446518       1.88407531 
O       7.95505603      10.71803436      14.98208801      15.99940000      -3.01666398      -0.35526680      -1.06366253 
O      13.92277334       8.05061875      11.32916001      15.99940000       0.41297187      -0.32425801       1.46899771 
O      14.79801554      11.15160361       0.20061818      15.99940000       1.65126167       0.83600472      -1.23862456 
O      14.95310377       4.43867305       5.60193726      15.99940000       0.24300138       0.58930609      -1.07416035 
O      14.09816706       5.64427976       3.57522429      15.99940000      -4.32005848      -1.19819987      -5.79442157 
O      14.46589500      13.89757129       3.71562235      15.99940000      -6.49351814      -3.35230966       1.95506681 
O      10.03653170      10.06100419      16.39266384      15.99940000       0.73525965      -1.41405452       4.60589419 
O       2.22449808       5.87065041       6.27922751      15.99940000       0.64244179       2.67039167      -0.69338692 
O       7.63269090      13.79625193       0.13048525      15.99940000       0.25072395       0.47619427      -1.44269918 
O       0.04655481       2.80861381      10.09785961      15.99940000      -0.21175862      -0.39269255      -2.25239329 
O       8.56833498       1.34880421      15.61180136      15.99940000      -1.93387270       0.62309759      -0.55526803 
O       0.86126966       6.46853318      14.67899480      15.99940000       1.68682234       4.32264552      -1.12390991 
O      15.07625065       3.46456428      12.20551049      15.99940000      -3.02573766       2.17925518       0.18385444 
O      14.18411524       1.77748294       1.94948014      15.99940000       1.54389523       1.47912117       0.75910560 
O       0.69577457      13.80643996       4.15553035      15.99940000       0.24717737      -0.25333670       1.06894949 
O      12.89364113       1.01101526      13.46004111      15.99940000      -0.06070632       1.43434027       0.79630123 
O      11.54500043       7.02680714       8.00898552      15.99940000       1.70378493       1.24334382      -0.05555691 
O       7.19481379       4.79188050       9.43242237      15.99940000       5.42944885       1.15843545       1.30870717 
O       2.38064851       7.08242442      10.38272168      15.99940000      -1.32101659       0.19527708      -1.41994081 
O       6.73798705       9.14518144      11.22823010      15.99940000       1.31688739       1.52246509       0.26764669 
O      15.56778835      16.13939681       4.60516517      15.99940000       1.33917757      -5.60912448       0.39318492 
O      12.94383525       9.00777574       6.85853021      15.99940000      -0.65438662       0.61669425       2.27258236 
O       0.78985006      11.12869457       4.70582982      15.99940000       0.05513602      -0.61781474       1.61828547 
O      10.70810936       5.54167490      13.16021998      15.99940000       1.24970987      -2.95677296       0.80280278 
O       7.62985120      13.85127973       2.79031494      15.99940000      -2.23793289       1.77748998      -0.38719527 
O       0.63372272      10.05588581       0.87578017      15.99940000      -0.42863631      -1.24071846      -0.07874749 
O      11.16341059       4.93547945       6.38804626      15.99940000      -1.19950625       0.47641307      -4.77623851 
O      16.27480983       7.88427662      10.55177567      15.99940000       2.50717341      -1.39953165      -3.25606505 
O       6.50935506       9.69346743       2.68003659      15.99940000       0.22259865       0.22734388      -0.46861054 
O       5.04932018      13.27647148       3.67045996      15.99940000       0.64963625       1.26986012       0.95798582 
O      15.54695927       9.32766777       5.86773376      15.99940000      -3.11180405       0.57279678       2.35715392 
O      12.22103302      12.29226763      12.67351915      15.99940000       0.68502183       1.94652664      -0.21679233 
O       6.05015908      15.08299038      15.27440935      15.99940000      -0.17711867       0.31096824      -0.80027976 
O      11.62535814      13.98213363       3.01308513      15.99940000       2.50350599       0.69515121       0.74827354 
O       2.79361456      11.11119207       0.08753697      15.99940000       1.77950906       3.53144330      -1.11103485 
O       1.23659854       7.19256737       8.11567307      15.99940000       0.15540056       2.63892908      -3.69160632 
O       5.77459737       3.39470119       7.68509286      15.99940000      -0.81752415      -1.35397993      -0.93057298 
O      11.05295438       7.49845459      11.42531000      15.99940000       0.46044780      -0.24103140      -0.46119008 
O       3.49085587       3.48322710       6.17412108      15.99940000       2.74203160      -0.59692607      -0.15278935 
O       9.51110418       5.70411253       8.35324038      15.99940000      -4.58095423       0.22667179       2.55754312 
O       9.24118930       5.66908279      11.03555128      15.99940000      -0.14160093      -2.44628995      -0.24345133 
O       0.09312230      12.04510335       2.33854717      15.99940000       0.45140575      -1.17139124       0.77859327 
240