240
Lattice="16.1353737134 0.0 0.0 0.0 16.1353737134 0.0 0.0 0.0 16.1353737134" Properties=species:S:1:pos:R:3:masses:R:1:forces:R:3 energy=-103445.25056822 pbc="T T T"
Si      11.76668874      10.09682654       2.79642110      28.08550000       5.56808505      -2.26843852      -0.10930814 
Si       4.38444800      13.72983719      15.58087416      28.08550000       2.18947994      -1.89084220      -1.13552358 
Si      10.73726987       4.14104917      14.25015545      28.08550000      -0.03939239       1.56582931       0.18055932 
Si       8.30486071      15.42976764      12.83379056      28.08550000      -2.35701482       0.81309825       1.63637575 
Si       5.24388066       2.62974544      11.21278157      28.08550000       1.26209873       0.01231301       0.37738292 
Si       5.37256964      11.14390705       7.96408178      28.08550000       1.87858961       1.70540396       2.08604575 
Si       0.98677404       4.15979618       4.37551916      28.08550000      -0.69635654      -0.92508933       0.52098905 
Si       1.18010607       8.21859586       6.90921258      28.08550000       3.20250306       0.43300796       0.47917777 
Si       9.98867726      13.63490824       8.79581874      28.08550000       1.71323168       0.69098294      -1.24634455 
Si       1.96920290       2.36825271      16.02953375      28.08550000      -1.17535562      -2.50071480      -0.50059866 
Si      12.07856217      10.73063426      11.61695925      28.08550000       3.47345927       0.02486308       0.96418090 
Si       0.92324376       5.76836935      11.49072749      28.08550000      -2.53695733      -1.45256271      -0.03300011 
Si      15.89662770      10.27320425       8.67288799      28.08550000      -3.65418365      -0.73855837      -2.45717060 
Si       7.31214948      12.89267729       3.99630408      28.08550000      -2.69482383      -0.64971416      -0.99212776 
Si       5.97799402       7.92261125       3.77857765      28.08550000       0.03497163       2.05381183      -0.86099533 
Si      14.25287973       6.18083231      12.70078470      28.08550000       0.28485200       1.82812760      -0.07475200 
Si      10.78307426       7.20370357      15.31150825      28.08550000       2.09566193       3.61214406      -6.25460121 
Si      13.34384382       4.78570208      15.12795333      28.08550000      -2.09311911      -1.54288916       1.72596738 
Si      10.20572761       3.96834134       3.20174007      28.08550000      -1.58793308      -0.51267436      -2.63043647 
Si       8.75534604       0.35067175       7.88183036      28.08550000      -0.48119918      -1.57669376      -3.07230471 
Si       3.81983558       5.30906562      11.20118323      28.08550000      -1.24351300      -0.14130037      -3.50025145 
Si       9.97453593       6.00800086       6.65539151      28.08550000      -1.41774817       1.56539737      -0.80587319 
Si       7.31421562      10.27326243      15.94575275      28.08550000      -1.76782623      -0.29940342       1.94455923 
Si       5.94706400       6.77292762      12.71504483      28.08550000       1.81359238       4.04710092       1.56822841 
Si       6.06069076       2.46549458       5.58617382      28.08550000      -1.16591633      -2.26817369      -1.47725764 
Si       4.83394527       2.95638766       3.03934531      28.08550000       1.30585788       0.93944380      -2.66356282 
Si       9.96078871       8.78914645      12.50345602      28.08550000       3.14064694      -4.32342380       3.77831600 
Si       4.20662789       9.16431473      15.55747291      28.08550000       1.95203960      -0.56626155      -0.63356686 
Si      13.90950022       7.61208366       2.83679742      28.08550000      -2.57286407       5.73614649      -3.60234096 
Si       2.08064696      15.53704738       0.60639614      28.08550000       2.76554357      -0.06616502       3.07268574 
Si       2.47003774      10.12301660       4.71438342      28.08550000      -2.24011550       1.17942491       1.40120775 
Si       5.17638928      14.53918990      12.60052229      28.08550000       0.47632334      -1.84704269      -2.33474315 
Si      13.02630372       4.76156579       2.08304731      28.08550000       1.51581493       2.91257056      -2.85483952 
Si       4.27090677       5.93163033       2.09280400      28.08550000      -1.07415546      -1.96033629      -0.79489587 
Si       3.10629622      11.26143376       0.89866196      28.08550000       0.96604700       2.08574930      -0.16341469 
Si      13.62287067       8.72581302      15.89348569      28.08550000      -0.98025029       1.21286699      -0.29062773 
Si       8.68798017       6.68747253      11.02134161      28.08550000       0.90383942      -1.07150388       1.46674285 
Si       8.17856270      15.95198792      15.94928143      28.08550000      -0.77761214      -0.45564524      -0.33062895 
Si       0.25550551       8.88061904       2.79128234      28.08550000      -0.13313378       1.96218491       0.74791719 
Si       1.02513346       8.64403966      11.10011807      28.08550000      -0.12559916       5.13017862       1.33434133 
Si       5.03973707      10.67526014       3.21645591      28.08550000       3.15243185       0.57791765      -0.37687590 
Si       7.27029675      13.16551506       0.90273177      28.08550000      -2.04558970       1.89412344      -2.24696518 
Si       1.04828268      13.00433219       4.66016635      28.08550000      -0.30749648      -0.12718322      -0.17693278 
Si       3.87280059       9.31732001      12.55624278      28.08550000      -0.39446610      -1.34919793      -0.38115961 
Si       8.50417286      11.15751915       7.61219151      28.08550000      -0.00024657      -5.63899196      -2.80705248 
Si       3.20240277       3.56391027       6.62504528      28.08550000      -1.35660888       3.32945101       0.64719808 
Si       1.20443704       6.06717736       1.95644007      28.08550000      -0.92721152       0.43994788       0.44006950 
Si       9.07709338       2.67678454       0.47697093      28.08550000      -2.56418685      -0.81636946      -4.93270993 
Si      12.85995899       6.61944981       7.76051524      28.08550000      -0.39877038       1.41885220      -2.03738376 
Si       4.14965682       3.24003002      14.16511596      28.08550000       5.33797518       1.74070083       2.80870982 
Si      15.97344459       3.73388042       9.29796661      28.08550000       0.37739063       0.90512651      -1.76443417 
Si       8.76308005       6.69764450       3.67004377      28.08550000       3.39790149       1.27965834       2.01845196 
Si      13.15269817       4.64306940      10.16810223      28.08550000       1.14689223       0.61379379       0.01399734 
Si       9.19345155       2.99435070       6.08545964      28.08550000      -1.57157213       0.98285045       1.37128602 
Si       8.37070170       8.15427441       8.37215841      28.08550000       0.13448695       0.47380340      -0.53767731 
Si       4.13807982      16.12799154      10.11031096      28.08550000       1.01883792      -0.55403981      -1.62559537 
Si      15.46265293       3.86620743       0.75639904      28.08550000       2.13217005       0.59357875      -3.38961920 
Si       1.17507087      14.93733969       6.92197246      28.08550000       1.25174644      -3.63345825      -1.23789462 
Si       7.99699266      10.87159010      12.84837173      28.08550000      -3.70883296      -4.28426590       2.23748475 
Si      10.08356799      11.43073005       4.97693183      28.08550000      -2.79326700       3.21988705       0.44110488 
Si       6.32968326      15.39301254       5.99828279      28.08550000       0.16965424      -1.22094565      -1.17662986 
Si       4.05908342      14.03403498       7.70468528      28.08550000       1.73607722      -0.26034322       0.36193367 
Si       2.23875187       1.73848504       2.73000061      28.08550000       1.24778283       1.68279933      -2.01648687 
Si       3.44285859       6.43882659       8.31793245      28.08550000      -2.56204204       0.53685919       0.51085351 
Si       1.80972909       1.33602820       8.51722424      28.08550000      -1.52613148       3.27593890      -1.31970198 
Si       9.55341563       8.58941061       1.37132504      28.08550000       1.07252435      -0.54288662       1.34590589 
Si      14.57331130       9.06336967      12.90768544      28.08550000      -1.02476483       1.49299099      -1.02250483 
Si      15.44700790      12.69735731       7.08358339      28.08550000      -0.79833420       2.02435701      -4.08621614 
Si       0.50051729      12.95508261       1.46205432      28.08550000       4.88169539       0.74407493       3.32868997 
Si       5.02959252       6.17772577      15.35067395      28.08550000      -2.93963990      -0.38149257       1.36612273 
Si       5.49559418       8.27457484       6.92040981      28.08550000       2.32001150       4.12033005       1.63995807 
Si      12.67772391       9.77303509       8.78572053      28.08550000       2.36766202      -0.83751087      -2.74660842 
Si      12.26484383      12.31828342       7.06713232      28.08550000      -2.11072885      -1.89200331       1.09206191 
Si      10.06469648      13.01925621      11.93278098      28.08550000      -0.31424434      -0.73425614      -0.96956479 
Si       8.21467613       1.62243022      10.68400804      28.08550000      -0.90475910       2.51761312      -0.13867605 
Si      14.34445374      11.06130566       1.47622802      28.08550000       1.06117679      -2.45742591       1.24191660 
Si       6.10723642       2.03651242       0.23551402      28.08550000       2.81362499      -3.10445867       2.14850144 
Si      10.27553424       3.98413867      11.02120148      28.08550000      -3.03089941       2.53090572       1.67183229 
Si      15.67459742       5.56361616       6.69155003      28.08550000       0.77313714       1.54770998      -0.58324060 
Si       5.32340775      11.61060542      11.18191859      28.08550000       2.83511530      -0.17235827      -0.22719193 
O       7.60125529      10.67599034      14.46268930      15.99940000       0.73106720       0.44481267      -2.63896173 
O       8.46733341       0.41927273      11.66478884      15.99940000       0.75522323      -1.62520122       1.21050955 
O       3.61165255       2.07298784       3.50130534      15.99940000      -0.18082954      -1.64310562       2.02425314 
O       5.25358440      13.14238949      11.70024232      15.99940000      -0.42343523      -0.60232179      -1.02053639 
O       3.09993785       9.77757572       0.37955825      15.99940000      -1.30957106      -1.43091016       0.72876710 
O      16.05769366      11.84115224       8.21813705      15.99940000       1.49022937      -1.98137023       2.16309554 
O       2.77892765       0.71922025       9.59044678      15.99940000      -0.49355333      -0.72441833       1.43775469 
O       4.81949521       9.81994796       7.43565757      15.99940000      -1.20213598      -4.80135484      -2.68359351 
O      14.19385321       6.20993979       6.90111681      15.99940000      -0.31856713       0.01810237      -0.15372394 
O      15.90427415      12.44252084       5.48054828      15.99940000      -1.40231152      -0.41670511       1.80107033 
O      15.81905919       6.01882231      12.52580691      15.99940000       3.27404091      -1.05353599       0.78797857 
O       4.30013045      11.36950490       1.98168892      15.99940000       0.02024255       0.29904603       0.59702686 
O       6.93599841       8.21051986       7.70555471      15.99940000      -1.28874204       0.08830634      -0.81776172 
O       0.91011870       7.63883218       2.04329942      15.99940000       0.62249723       0.21795884      -1.93033589 
O      10.80899942       9.63083969       1.65571336      15.99940000      -1.74583944      -0.06296786      -2.76361087 
O       9.96954087       7.26653558       0.46264173      15.99940000      -2.14553953       0.92740641       4.22414708 
O       3.62183929      12.32257753      15.94902247      15.99940000       0.43883537       0.89482025      -2.13814093 
O       7.54411358       2.81937918       5.96845557      15.99940000       1.88724523       1.48867848       1.39105986 
O       1.64158287      11.74981701       1.23914516      15.99940000      -2.32834882       0.79371085       0.61665106 
O       1.22232328       0.19338577       7.56030224      15.99940000      -0.78663440       3.51818952       0.21745979 
O       5.09071230       1.33458001      10.29699912      15.99940000      -1.35993563      -1.55814248      -1.53600863 
O       5.02287070       8.15833655      12.51017942      15.99940000       1.08205132      -0.28307974      -0.16754619 
O       6.65938180      11.05426392      12.05159683      15.99940000      -1.35322094       0.77090722      -1.53453179 
O      10.40910025       4.05132248      12.64077357      15.99940000       0.14557972       0.10595207       2.04615843 
O       2.25950232       4.06232072       5.30129893      15.99940000       3.42363978      -1.05477629       3.28227359 
O       3.25314020       5.02970260       7.57157027      15.99940000       0.26895461      -1.99346470      -0.96563048 
O      12.24288873       3.67177664      14.62914616      15.99940000       0.98354850      -0.30930730      -1.03034258 
O       4.54875674      12.47152020       7.69630689      15.99940000      -1.45690453       1.87404827      -1.00342621 
O      12.73722123       8.16956952       8.26676912      15.99940000      -0.71918665       0.89597082       0.07274191 
O       9.16440695       6.88923138       7.74927696      15.99940000       1.14637441       0.19046655      -0.42238262 
O       7.55518134      15.68328017       6.98946152      15.99940000       1.94211128       0.39528911       2.07065075 
O      13.92457087       7.99834899       1.13443200      15.99940000       1.94512127      -1.40376163       1.16850698 
O       5.48596532       2.26148285       1.69962937      15.99940000      -0.51558434      -0.17075004       0.81937791 
O       0.27762771       5.19307463       1.00809716      15.99940000      -1.23604600      -0.54451593      -0.85657869 
O       0.93716800       7.15246020      10.73043368      15.99940000      -0.30960452      -1.11142000      -2.40454912 
O      14.31482446       3.81548698       1.86166210      15.99940000       0.45128105      -2.08645918       2.14650344 
O      13.58132425       6.12937455       2.85860151      15.99940000      -1.58047380      -5.07020970       0.84610144 
O      10.84194558       5.69934217      14.85274063      15.99940000      -0.02128539      -1.69789325      -1.40898277 
O       5.01150833       5.76627002      12.04582578      15.99940000       0.53927808      -1.95567771       0.75624293 
O       8.23725051      14.36872319       0.41194501      15.99940000       1.65241481       2.30602522      -0.47338971 
O       7.45310372       6.68268648      12.11772392      15.99940000      -0.13343100      -0.47546407      -0.42892685 
O       9.75146653       3.43111386      15.28181917      15.99940000      -0.81493093      -1.10045733       0.79480177 
O      11.23995806      12.11063120       5.81755608      15.99940000       2.17449247       3.04244726      -0.17122595 
O       9.43423897       2.70236212      10.70052062      15.99940000      -0.61955795      -2.07955114      -0.68833907 
O      15.45388556      10.12093412       2.27558634      15.99940000       0.98457257       0.02642991      -0.95032625 
O       7.25383978       7.00915560       3.55218992      15.99940000      -1.34417785      -1.24263805      -0.25458652 
O      16.13015909       4.59846055       7.89871117      15.99940000       0.51008063       0.49938844       1.00804109 
O       4.12090141       7.55380256      15.49767926      15.99940000      -0.30105535      -0.45617900      -0.00649358 
O       6.86370115      14.21191401       4.88042986      15.99940000      -0.02820834       0.49787664       0.94533651 
O       8.37906663       9.25893231       0.52816687      15.99940000      -0.91168026       0.05745927      -0.24264683 
O       2.03578794      11.72464772       4.73870303      15.99940000       1.26591450      -0.04924897       0.84780377 
O       0.50023338       2.29244627       8.98229414      15.99940000       0.55494330      -1.43258138       0.84936906 
O      14.67910958       4.06447968      15.45638295      15.99940000       3.30751899      -2.43301946       0.65708757 
O      13.84149695      12.52126276       7.07877424      15.99940000       0.06880221       1.28854587      -0.56481993 
O       6.04743767       3.06897505       4.08318790      15.99940000      -0.00499488      -0.30706607       0.29961450 
O       6.08285465      11.68150782       3.93550968      15.99940000       1.12439379       1.28496124       1.24387012 
O       4.64247239       7.25525523       7.69320833      15.99940000      -0.16490567      -1.57621117      -0.19404629 
O       1.41516969      14.43681510       5.39620525      15.99940000       0.28881150       0.58674476      -1.31858638 
O       4.69503278       3.09270239       6.28460592      15.99940000       1.65793394      -0.44852791      -0.16237879 
O       8.49330987      15.87735270      14.37060476      15.99940000       0.94472176       0.26931354      -1.19273397 
O       2.72788732       2.99344986      14.70536271      15.99940000      -4.46290074      -1.15359998       0.97387087 
O       0.13477854       9.33461363       7.35475191      15.99940000      -0.91487999       1.06821441       0.77701642 
O       4.39630460      14.09492681      13.89393533      15.99940000      -1.09407817      -0.03920495       3.20571359 
O      11.44032643      13.22938739       8.13870436      15.99940000       0.44336154       1.20843801       0.30787134 
O      13.73725851      10.35805483       0.20596926      15.99940000      -0.58486554      -0.85788507      -2.19272210 
O       1.43498712       9.54829757       3.68086965      15.99940000      -1.62499477      -1.24432058      -2.18108940 
O      11.17442224       9.82784235      12.49200913      15.99940000      -1.55368291      -1.07253798       0.78186243 
O       3.65677149       6.38808185       9.96337278      15.99940000      -0.05383530      -0.87056780      -1.02038881 
O       2.39094586       5.37713267      11.96081563      15.99940000       1.12312983      -0.79178278       1.49466992 
O      15.24431725       8.04056458       3.53240150      15.99940000      -0.10709956      -0.89431991       2.64800559 
O      15.90199563       4.47989726       5.49818903      15.99940000      -0.05769761      -0.59506896      -2.48102812 
O      13.09601378      11.10436429       2.44868385      15.99940000      -3.29571634       0.99657011       1.78946206 
O       4.75603201       2.68971936      12.77791351      15.99940000      -0.87486849      -0.12572797       0.09186886 
O      11.54569853      12.27508792      11.81945804      15.99940000       0.44403234       0.62630555       0.86828801 
O      13.72470395       5.21063426      11.58605360      15.99940000      -1.93564701      -1.42528330      -1.41267384 
O       4.88347059       7.09405969       2.99429962      15.99940000      -2.44830312      -0.53721734       0.33227523 
O       2.52872169      14.30980668       7.55272912      15.99940000      -0.92008211      -1.29362714       0.45209712 
O       2.12844617       7.42959515       8.02770482      15.99940000       0.26389263       0.20493672       0.43739195 
O       9.70272506      15.20362924       8.34624725      15.99940000      -0.18314070       0.14457904      -0.02036674 
O       0.69163514       9.72311938       9.76295159      15.99940000       2.70351570      -2.06923793       4.54530717 
O       2.28156719       9.08222461       5.95652763      15.99940000      -0.18453681      -0.32010131       0.68636575 
O       9.21313667       6.46032182       5.24859293      15.99940000       0.45538530       0.85552994      -0.02237657 
O       2.69429469       5.90908687       1.56230515      15.99940000       3.88164529       0.70682222      -0.79436802 
O      10.12757709       8.13349664      14.02558507      15.99940000       0.01785503      -0.80352603       1.77802914 
O      13.80830210       5.96583101      14.22165111      15.99940000      -0.43483550       1.34831322      -1.56787797 
O       4.41170887       3.88354250      10.60146540      15.99940000      -0.58245487       0.03307338      -0.58534865 
O       9.07750386       1.08392193       0.30169350      15.99940000       2.30642091      -2.30975872       0.91035125 
O      14.51826194       8.89796387      14.52192174      15.99940000       0.73656011      -0.04742323       0.06941027 
O       9.34130959      14.23549923      12.74891848      15.99940000       2.23664554      -0.95415051      -0.76570331 
O       2.63081754       2.54695372       1.30242264      15.99940000       1.33980646       0.93208016       0.91406238 
O       5.19051552       5.80989786       0.77442323      15.99940000       1.44924110      -0.23688036      -0.43045228 
O      12.21098280       8.05010582      15.43369677      15.99940000      -0.10755541      -0.10659742       0.12951263 
O       0.42468675       2.68348581       0.29578590      15.99940000      -1.83312685       0.80674608      -0.01529678 
O       5.40084076      11.15307565       9.57966275      15.99940000       0.62523777       0.90167070       2.37134152 
O       8.16550598       1.09455975       9.14033573      15.99940000      -0.85936756       0.56572882       1.14840558 
O       8.28862304       7.64576140       9.86961471      15.99940000      -1.61628644       1.08205415      -0.34674308 
O       0.40610742       6.99640940       6.30544516      15.99940000      -1.71485251      -3.24346896      -0.97367958 
O       6.90262757      11.14619296       7.42528165      15.99940000       0.89468604       1.12261124      -0.39957385 
O      15.94183010      14.23453451       7.32500661      15.99940000      -1.40340270      -0.11528209       1.27317504 
O       9.54256965       5.42745027       3.10328541      15.99940000      -0.17926168      -0.99392830      -1.55507439 
O       9.03605130      12.45107280       8.24940323      15.99940000      -0.04059103       2.25343973       0.97084288 
O       9.21208628      10.80314346       6.08143744      15.99940000      -2.71689135      -1.63303769       4.16290777 
O       9.32944453       8.07480287       2.93850686      15.99940000       0.15240908      -0.35613969      -0.89009585 
O       6.04178125       0.75596890       5.48930335      15.99940000      -1.05900909       2.31272063      -0.68626393 
O       0.75479384      13.37288274       3.12398500      15.99940000      -0.88378327      -0.24505698      -2.28939995 
O       9.59800827       3.12372361       1.82905585      15.99940000       1.96216023       1.86398600       5.31184043 
O       9.88164582       3.31551127       4.63849807      15.99940000       0.49053074      -1.28637508      -0.60334689 
O       5.94896354       8.13079135       5.38658578      15.99940000      -1.33827434      -0.00399215      -0.35663231 
O       9.98815480       7.38782800      11.66938331      15.99940000       1.11882992       0.83695757      -0.20541906 
O      10.00887395      13.50107582      10.37940812      15.99940000      -0.72363389       0.41996887       0.49692507 
O       1.89722943       0.65502145      15.83850648      15.99940000      -0.50101904       2.26562213      -2.52553237 
O       4.25053564      10.58369649      11.68165357      15.99940000      -1.81534741       0.16838540       0.45596508 
O      12.95342722       5.27974193       0.47036312      15.99940000      -2.19449359       0.68050338       2.81725333 
O      14.26677822      10.05587580       9.01964645      15.99940000       2.11491435       0.45970604       0.06269892 
O       4.43166224      14.85743591       9.05294937      15.99940000       0.56310449       1.59824347       2.19147563 
O       5.69104864       9.70145465       0.01388101      15.99940000       1.32148993       0.20626623      -1.18736730 
O       4.40980174       4.87063930      14.59711346      15.99940000      -0.92631163      -1.86470025      -0.94235120 
O       3.58073220      14.81143067       0.27594564      15.99940000      -1.76831268       2.24716521       0.93286666 
O       2.13693732       0.24877192       2.16547007      15.99940000      -0.79025194      -2.22020128      -0.21129094 
O      13.93754082       7.72053543      12.33882000      15.99940000      -1.42716586      -1.47129216      -0.91365718 
O       9.58201426       4.46827852       6.83153510      15.99940000      -0.52087130      -3.57251051       0.33676823 
O      12.15525489      10.79403281       7.63464547      15.99940000      -0.16787015      -1.59103641       0.44953424 
O       9.07800076      11.84185719      12.47015928      15.99940000       3.64058432       3.45445908      -1.13309080 
O      12.68567422       8.68543542       3.13071551      15.99940000      -0.98388172       0.27295808       1.38227672 
O       0.53726259       4.53039956      10.49415864      15.99940000       0.49896421       0.13882080       0.58493804 
O      16.06466431       9.08332196      12.26766546      15.99940000       0.66396218       0.43390193      -0.23618950 
O       9.34722232       5.28254213      10.49833627      15.99940000      -0.08152068      -1.08548708       0.37010078 
O      11.95044564      10.21362939      10.11056093      15.99940000      -1.17457452       0.01732615       0.36551470 
O       4.93692879      14.82149665       6.61557434      15.99940000       0.83115922       0.32263976      -1.15686991 
O      14.38717812       3.79961767       9.51443035      15.99940000      -1.58323388      -1.47525526       0.82162814 
O       7.62625545      11.65617286       0.63070011      15.99940000       0.46085301      -1.43613027       0.12479826 
O      13.63364852      10.25767610      12.16488334      15.99940000      -0.30655545       0.97183713       0.37684067 
O       6.70137714       0.45747984      15.98364852      15.99940000      -2.36008986       0.84754897       1.32512084 
O       5.11163753       2.40456489      15.29025538      15.99940000      -3.34882093       1.48707668      -3.91676579 
O      11.57485022       6.19145509       6.80885235      15.99940000       0.33505279       0.36256025      -0.20835654 
O       5.99546137      13.46638172      15.95368777      15.99940000      -1.34370708       0.38417654       0.68587775 
O       1.04697294      14.32292472       0.69732269      15.99940000      -1.70701295      -0.91704743      -0.22713973 
O      12.86239226       5.72702269       9.02705781      15.99940000      -0.23495075      -0.68783976       2.18656637 
O       9.42781847       1.53549573       6.85322561      15.99940000       1.00684784      -0.23925734       0.56879897 
O      11.75357357       4.10657606       2.75246242      15.99940000       0.34103060      -0.47250011       0.94905047 
O       3.69005992       9.67683070      14.11349186      15.99940000       0.07063026       0.73528356      -0.35523055 
O       6.70571299      14.96376028      12.80976273      15.99940000       1.02379681       0.51981406      -0.31613281 
O       7.47010084       2.83523776       0.21714756      15.99940000       1.18934911       2.78254781       0.15761428 
O       3.94051013      10.16131350       4.19692429      15.99940000       0.14883679      -1.28068986       1.54406775 
O      10.87976325      10.59215199       3.98300779      15.99940000       0.60598818      -1.41796209      -1.39825921 
O       8.77442680      12.26222023       4.23067335      15.99940000       1.49075593       0.47689104      -0.13733830 
O      15.21493548      12.38025387       1.20976012      15.99940000      -1.80248547       1.31834341      -1.13024151 
O      11.70337884       4.01352555      10.42592308      15.99940000       2.10966339      -1.11728906      -1.18963219 
O       2.63459712       2.47503407       7.65893115      15.99940000      -0.25223576      -0.93287746      -0.30439470 
O       4.37043344      15.48815756      11.53643865      15.99940000      -0.79484470      -0.20052059       2.19157436 
O       6.13656618       6.58337703      14.34033129      15.99940000       2.92196537       0.75942904      -1.86414412 
O       8.93279308       9.69945843       8.39732294      15.99940000       0.10006965       1.09345442      -0.21078469 
O       1.20575072       2.74002910       3.46671798      15.99940000      -2.57113269       0.19129830       0.79667121 
O       8.57003120       9.40089307      12.43899793      15.99940000      -3.36824845       1.68917233      -0.79283924 
O       5.96976690       9.33922429       2.90013345      15.99940000       0.15748007      -0.59906060       0.77308854 
O       4.35115385       4.48794383       2.81023101      15.99940000       0.17291337       0.00027742       0.54342450 
O       7.07773097      13.36728246       2.44827787      15.99940000       0.26865714       0.84257029       1.25897330 
O       1.10896123       5.40232084       3.40236041      15.99940000      -0.72425121       0.05738805       1.24438974 
O       2.46310511       8.80566109      11.87189094      15.99940000      -0.06100071       0.16366100      -0.33029779 
O       6.88207335       2.44388560      11.26196404      15.99940000       1.05913302       0.97782600      -0.22249761 
240
Lattice="15.9962687421 0.0 0.0 0.0 15.9962687421 0.0 0.0 0.0 15.9962687421" Properties=species:S:1:pos:R:3:masses:R:1:forces:R:3 energy=-103421.95388595 pbc="T T T"
Si       8.89833369       5.79198517       7.72549414      28.08550000       3.36644739      -3.28246102      -1.67897945 
Si       7.34446297       3.53412250       5.84133899      28.08550000       5.32162502       1.08505874       1.85084098 