240
Lattice="16.4288082428 0.0 0.0 0.0 16.4288082428 0.0 0.0 0.0 16.4288082428" Properties=species:S:1:pos:R:3:masses:R:1:forces:R:3 energy=-103430.03338013 stress="1.2086151238167793 0.5325202955473151 0.5675312984037408 0.5325202955473151 2.4838688371039828 -0.6072496629887615 0.5675312984037408 -0.6072496629887615 0.1682881817972731" pbc="T T T"
Si      11.52568475       8.65340610      13.38411880      28.08550000       0.77369172       0.50095862      -1.48958093 
Si      14.92890785      10.65298406       7.59302768      28.08550000      -0.72740313       3.90565348      -2.74796236 
Si       1.00715805       6.02323437       6.29024554      28.08550000      -0.26461742       0.66634945       4.35810798 
Si      10.89002144       0.12147377       6.79248946      28.08550000       1.47560262      -1.75677383       2.63689791 
Si       6.01081099      11.12482903      10.50596644      28.08550000      -3.62974146      -1.74526788      -3.28479198 
Si      16.34224838      14.06653860       5.20461551      28.08550000       2.93092335       0.36849230       1.39931362 
Si      14.45185942      14.80439476      15.25439453      28.08550000       3.55359799      -3.32648525      -1.20060386 
Si       4.06176724       7.18585536       0.47465739      28.08550000      -1.11497481      -1.20614973      -2.31725940 
Si       5.09073600       0.97462721      12.80823351      28.08550000      -2.43056020      -3.02825991      -2.39668077 
Si       4.91266438       0.29673839      15.84442818      28.08550000      -0.95107161      -1.50809879       7.70501087 
Si       8.75924250      13.61302594      10.29929045      28.08550000      -1.50143372       2.20551103      -0.77201742 
Si       9.83530909      10.64076177       1.40615505      28.08550000      -0.24647263      -2.04767743      -3.65399622 
Si       9.22786948      14.26184836       5.16504027      28.08550000       0.72712699      -0.57275590       0.97422003 
Si       6.75957595      14.53994585       0.74605250      28.08550000      -2.32638321       4.72623672       2.68298467 
Si      12.39936670       9.38035821      10.52133825      28.08550000       2.17482645      -0.98191225       2.30337852 
Si      15.36625038       7.64001850       8.01797472      28.08550000       3.49786007       1.30930752      -1.58057896 
Si      15.61080291       9.54024625       0.49961879      28.08550000      -2.55448351      -0.84245716      -0.88027038 
Si       6.61331538       3.24224051      11.18209416      28.08550000       0.95824936      -5.34802228      -2.40894210 
Si       4.23369962       1.42638763       7.35717644      28.08550000      -5.96592649      -2.60886080      -0.71785559 
Si       0.01427521       0.29318180       0.38722292      28.08550000       1.12684225       2.03311008       0.44190192 
Si       5.38051270      11.46473560       3.84790697      28.08550000       2.20493587      -2.85198508       0.23253622 
Si       2.67576595      12.32065460      14.68914068      28.08550000      -2.00678455       1.54344889       0.16933774 
Si      11.33868319      12.83308590       2.89549826      28.08550000      -0.28943576       0.76486641       4.11137567 
Si       5.61528871       7.45148362       4.08654448      28.08550000      -2.69115821       5.02881545       2.63899850 
Si       9.11664924       2.68625653       7.40471951      28.08550000      -2.64795416      -6.15834142       0.85250015 
Si      12.09019183      13.22220990      16.37559301      28.08550000      -0.25966008      -2.25953504      -0.82330913 
Si       4.16222060       0.12108607       4.40742661      28.08550000      -1.79843830       1.48597471      -2.01919912 
Si      16.05792787       5.45349238      13.57618366      28.08550000       3.98436266       0.78935720       0.61969524 
Si       1.15987702       7.47880362      15.52931337      28.08550000       1.83964074       0.61742188      -1.74952306 
Si      13.63145442      14.76510668       6.87986632      28.08550000      -2.32192055      -0.76197032      -3.69010916 
Si       4.51708023       5.19219225       2.81399102      28.08550000      -5.23484026       0.25437774      -1.11602022 
Si       5.53991491      12.45399568       7.71054415      28.08550000       0.92858526      -0.37908396       2.19981320 
Si      13.81486953       5.27095735       9.29317866      28.08550000       2.84990274       0.04105512      -0.83894452 
Si       5.16144485       5.83487578      11.58191532      28.08550000      -3.50815991      -1.64350825       6.57747571 
Si       8.42615562      11.97625698       7.43921538      28.08550000       2.69307265       4.42446481      -1.13029653 
Si      15.99483039      11.87770361      14.80014549      28.08550000       0.27311286       0.69979025       1.92674174 
Si       9.05849319      12.82593411      15.64596040      28.08550000       0.10900963      -1.11623696       3.01555712 
Si      15.51390461      15.63390488      12.25487395      28.08550000       4.40551012      -1.14959651       4.88363092 
Si       3.73086665       7.50911063       6.57609385      28.08550000       0.51567253       5.38826261       0.52054220 
Si      13.60634856      15.06094346      10.05889906      28.08550000      -0.37680468      -0.30553087      -1.16768654 
Si       4.49129220      15.05128695       8.14492601      28.08550000       0.20979559       0.14626929       2.54410577 
Si       6.37999409      14.42691439       3.88382154      28.08550000       1.88364825       0.99792765      -0.75472110 
Si       6.26594136       3.45482563       8.07526385      28.08550000       2.48298499       1.85139788      -1.08662531 
Si       1.33471109       5.59549915       3.26505044      28.08550000       1.53229544       0.78420496       2.40161060 
Si       8.47328360       8.72632852      12.95588207      28.08550000      -2.46798132       0.78762325      -1.03587251 
Si       0.86981792       2.81088566      14.72097998      28.08550000      -1.35952888      -1.70089450       4.24694274 
Si       1.16568142       3.00437972       1.34352327      28.08550000       0.91919353      -1.35589103      -0.97822452 
Si      13.64854763      11.95470510      10.11056886      28.08550000       5.83323571      -5.10621620      -1.10971022 
Si       4.04250933       2.13042471       2.10139455      28.08550000       6.70318851      -1.72575115      -1.04892960 
Si       3.09032593      10.47370655      10.85724307      28.08550000      -1.65415030      -0.75898013       1.90825988 
Si       7.79564532       8.60825668       9.84011575      28.08550000      -0.33564260      -0.92441982       1.62184311 
Si       3.56164474      13.39132895      11.90293213      28.08550000      -2.68710615      -0.85471310      -1.25484770 
Si      12.38347826      10.00062957      16.16392261      28.08550000      -0.87849837       1.99494539       1.08291727 
Si       3.84959798       9.38893758       2.31489751      28.08550000      -0.98671430       3.31425991       4.02967552 
Si       1.40758417       1.29787297       9.15344028      28.08550000       1.07763931       1.37119732      -2.58237535 
Si       5.79256608       7.61129740      14.30135645      28.08550000      -3.58939443       1.52993517      -1.52843364 
Si       1.93388735       1.11795342      12.28611561      28.08550000      -3.47065600      -0.37167352      -1.07404105 
Si       3.53703347      10.86062936       6.30546136      28.08550000       1.09302556      -5.57448761      -0.93296308 
Si      10.63378410      16.09295057      10.04312576      28.08550000       1.54445367      -0.63618887      -3.98789613 
Si      13.74896334       7.22281687      11.83763084      28.08550000       2.77864514      -9.12406105       1.42836683 
Si       0.69175623      13.27905076      10.81575720      28.08550000       1.97056208       1.45202226       3.72529034 
Si       1.30683037      14.67651056       8.28952221      28.08550000       0.89295440       2.94850146      -3.77248782 
Si       6.02090204      15.08951419      10.91728945      28.08550000      -4.12462019      -1.61292704       3.92821774 
Si      15.90954504      10.70647908      12.02228109      28.08550000       0.02309211       0.74342315      -0.30858637 
Si       7.99690500       9.59651523       3.77539152      28.08550000      -1.89300321       1.57116769      -1.12125910 
Si       8.03598697      11.82313913      12.50968994      28.08550000       1.47793358       0.32192088       4.72929042 
Si       0.35575940       4.25236548       8.86221425      28.08550000      -2.11031593      -1.42782175       0.39760310 
Si      10.89255604       4.58415610       8.65425085      28.08550000      -1.73062982       0.48183501       5.13117852 
Si      12.47127488      12.00518821       5.78525596      28.08550000       1.08417505      -0.57292225       0.29576916 
Si       0.77412657       8.90327572       3.06335784      28.08550000       0.11032706      -1.22374636       0.18000087 
Si       5.71632969       6.50594265       8.76338360      28.08550000      -1.00859310       3.54932121      -0.39399713 
Si       0.60685643      11.02610954       5.33163483      28.08550000      -0.34324587       1.70119661       5.44896635 
Si       0.94737047       8.59615817      10.34568214      28.08550000      -2.85567641      -4.09047337       3.62438071 
Si       9.37018603       2.30274195      10.24097678      28.08550000      -0.89298551      -0.64387750      -1.53186247 
Si      10.16768477       9.80003392       6.21008666      28.08550000      -2.81453002       1.41078331       1.13847084 
Si       1.99681964       5.71659767      11.24459156      28.08550000      -4.15896987      -0.48862272       0.44198471 
Si       3.74496520      14.26271874       0.70633482      28.08550000      -3.51437221      -0.77181276      -2.82887035 
Si       3.19330560       9.44430538      13.81889947      28.08550000      -2.56275732      -1.47506911       0.23535698 
Si      10.55276159       7.77635325       8.60204946      28.08550000      -0.29423216       0.47923948      -3.18676302 
Si       1.77289440      15.27362324       2.81958495      28.08550000      -3.61432487      -0.62562524      -3.64173566 
O       3.45856204       0.65974862      12.31138558      15.99940000       1.87559427       0.16602667       0.73703628 
O       0.93570022       5.34791420       4.92084080      15.99940000      -0.89236176      -1.81395388      -4.83450948 
O      12.46187303       7.51408976      12.65165320      15.99940000      -2.27889468      -1.86113747       3.66518155 
O       4.56560939      10.10936470      10.58462796      15.99940000       6.94766905      -1.02506719      -2.46666131 
O       0.67409519       5.02320250       7.54073195      15.99940000       0.81685823      -0.06062635      -2.26273273 
O       9.17920663      11.41077155       0.12924563      15.99940000      -1.22064329       0.58250501      -1.02095522 
O       5.14040213      15.02983322       9.66569448      15.99940000      -1.41204109       0.03766563      -3.28727387 
O      16.10206940       3.87323165      14.24327801      15.99940000      -0.16559627      -0.25779757      -0.38317638 
O       0.74977194       5.54311464      12.37841312      15.99940000       0.77367990      -1.82420281       0.89754665 
O       8.96631582      12.57339083      11.51395163      15.99940000       2.11078079       1.01196176      -1.32749859 
O       9.21094490       8.38064286       9.17051336      15.99940000       0.44670089       0.88309165       0.08400719 
O       1.21160509       4.89788630      10.00239298      15.99940000       2.53941710       1.04303509       2.04502071 
O      14.60641365      11.18090241      11.27663942      15.99940000      -3.86287161       1.40644689      -2.14850864 
O       2.68657376      14.25472408       1.96180003      15.99940000       1.43251967      -0.92408403       0.00678977 
O       0.91960740      16.19268382       8.89182110      15.99940000      -0.90078186      -0.43811417      -0.48456321 
O       0.78386877      15.83406716       1.47822924      15.99940000       1.47179970      -1.09933556       1.76847080 
O       3.05693795      10.76583607      14.68088295      15.99940000       1.13517777       1.04295538       1.53522701 
O       5.58198242       2.27635682      12.09087815      15.99940000       1.51173484       2.36765764      -0.50084652 
O      12.48265979      13.51774907       6.49840094      15.99940000       1.13350526      -0.10284927       0.20330741 
O       2.89354650       9.82357625      12.30176440      15.99940000      -1.35741775      -1.28383046       1.14458209 
O       5.30897836       6.95526321      15.75863448      15.99940000       0.23897144       0.69106830      -1.24907044 
O       2.21153045      13.91337194      11.18605651      15.99940000      -1.71848676       1.30511251      -0.77885887 
O       1.58384898       1.58987009      10.69243993      15.99940000       1.12904928       0.16130304       3.13523066 
O       4.75617392       7.29664264       5.47316899      15.99940000       4.24522344      -1.57260417      -3.37978344 
O       5.12994028      13.92701550       7.14684704      15.99940000       0.45246684       0.28366904       0.39553310 
O      12.99578773      14.34824002      15.64946943      15.99940000      -1.47955955       0.02711177       0.63338791 
O       3.99277550       0.82268971       5.83397746      15.99940000      -0.51444560       0.97460518      -0.48764956 
O      16.40809822       7.96394567       9.22960853      15.99940000       0.46051774       0.15758831       0.17926065 
O       1.04439375      12.20395281      14.37737347      15.99940000       2.29066519       0.80416649       0.34134839 
O      14.53348644      16.01840615      11.11357743      15.99940000      -2.28367205       0.13116894      -3.23905643 
O       0.67590390      13.62793304       9.24455646      15.99940000      -1.94991381      -2.33162158       0.61331891 
O      10.59371486      13.37205937      15.83625198      15.99940000      -1.88791783       1.31682929      -1.16156088 
O       8.51819568      12.60328105      14.19821779      15.99940000      -1.70174245      -0.86097810      -4.17618881 
O       2.40650315       7.00619827       0.05950825      15.99940000       1.87988107      -0.53239884       1.54765547 
O      13.35933199      13.40757046      10.39315268      15.99940000      -0.73481973       5.52147275       0.95397079 
O      16.41863374       9.28609787      11.55367319      15.99940000       0.34691946      -1.61813995      -0.07509961 
O      16.10390218      14.20915313      11.77454991      15.99940000      -0.00023063      -2.03709632      -1.13938872 
O      15.15337139       4.36315555       9.21321982      15.99940000       0.01619692      -1.47840332      -0.01878525 
O      12.43087177      11.62194401      16.11018781      15.99940000       0.79012184       2.29398937      -1.07531940 
O       0.66566686      16.41005277      12.43291961      15.99940000      -1.42748674       0.55476615       0.40273194 
O       5.16863060       6.50716482      10.26581688      15.99940000      -0.07345564       2.39053635      -4.01276692 
O       3.13951852      13.13991209      13.37399219      15.99940000       0.32920661      -0.11634704       3.87224225 
O       9.94082446       8.31937779      13.41297923      15.99940000       0.50933990      -1.27881373       0.63032547 
O       4.71756240       1.09187586       3.23150122      15.99940000      -0.48614598       2.19522456      -1.11654421 
O      10.24277577      13.77458416       3.89009133      15.99940000      -0.07767585       0.15880701      -0.61980503 
O       2.56344514       2.26140505       1.93534721      15.99940000      -6.12704595       1.05006885      -0.13524697 
O       4.57769078      10.87654164       2.60907950      15.99940000      -1.49982524      -0.82263241      -2.44989669 
O       4.97062547      13.99605705      11.84088304      15.99940000       3.43968783       2.15315205      -0.54785965 
O       8.00627824       8.21612195      11.43226554      15.99940000       0.54081483      -0.37790665       1.72416967 
O       7.27136246       8.29809611      14.07218327      15.99940000       0.89003363      -0.42672778      -0.27823012 
O      14.85392747       6.33219609      12.96410528      15.99940000      -2.04814795       1.40991119      -0.59464910 
O      12.50786907      10.86507705       9.89657055      15.99940000      -1.57359430      -0.71754243      -0.54727215 
O       1.68913988       2.29404071      13.47057690      15.99940000       1.13849449      -0.43301876      -1.76924522 
O       0.99713036       7.18783944       3.08033112      15.99940000      -1.67029375       2.19206159      -0.23242952 
O       5.35937070       6.79843687      12.90191536      15.99940000       0.95337532      -1.68865605      -0.20633951 
O       6.07550370       5.07355245       8.27162731      15.99940000       0.74705741      -1.69580243      -1.57084425 
O      13.66079673       5.77641076      10.74791413      15.99940000      -1.19562183       2.78110568       4.15562435 
O       2.15034688      11.27637855       5.75261908      15.99940000      -1.59952105       1.37501515      -0.46270626 
O       6.63698966      11.90696752      11.74173410      15.99940000      -0.94409904      -0.25845808       2.03469002 
O      10.52963681       6.16330376       8.54408104      15.99940000      -1.57196396       1.70358696       0.24780909 
O       6.15359683       4.58399394      11.67835466      15.99940000      -0.30374652       4.11496544       1.41027629 
O      10.27611564       1.64235141       6.84683248      15.99940000       0.25103274       0.61212926      -2.91755978 
O       4.57136399       1.48998815       0.55764185      15.99940000       0.31893146       1.21965650       0.69409243 
O       6.28713941      15.97221405      16.35042213      15.99940000       1.40756532      -0.69759247      -0.15461354 
O       8.60030600      10.38389055      12.88422051      15.99940000      -0.56802199      -1.41340558       0.05363475 
O       0.97353482       4.40470619       2.23851035      15.99940000      -1.42360977      -0.98698658      -0.63912276 
O      16.07692735      10.82366978      16.10424574      15.99940000      -0.05386461       1.30036240       0.34626203 
O       2.70928423      16.11732636       3.68617642      15.99940000       2.52605379       2.38581940       2.78137051 
O       0.64548016       2.68229646       8.65047657      15.99940000      -0.50293014      -1.69758549      -0.02499524 
O       6.40505349       2.98983781       9.54635634      15.99940000      -0.55914165      -1.09153560       3.30225131 
O       5.99216928      16.31772801      11.95147881      15.99940000       0.11414901       0.85441536       0.96417601 
O       4.56332671       8.47223785       3.37227329      15.99940000       0.22616503      -1.07841732       0.83939215 
O       2.13831480       8.32951656      14.46674911      15.99940000      -1.36981767       0.43473523      -0.38549655 
O       1.89168036       9.74418799       9.98710938      15.99940000       3.52265219       3.27679045      -2.18451977 
O      11.73977211       9.54927737      11.99535901      15.99940000      -1.04058045       1.98429948       0.04725662 
O      15.29560895      15.74241786      16.18498420      15.99940000      -0.25445436       1.39375824       2.52890618 
O       4.33924773      11.44062900       7.52980741      15.99940000      -1.39755473       0.20415664       1.37858770 
O       9.84032713      14.81097667      10.47198183      15.99940000      -0.40680199      -2.22980872       0.26579113 
O       4.53157286       6.03240146       1.46942126      15.99940000       0.00230037       0.44472576      -2.28170310 
O      16.32160673       8.28988988      16.14234032      15.99940000      -0.16354376       0.54008309       1.16156885 
O       1.58304770       3.38898429      16.18645223      15.99940000      -0.98030583       0.03820865      -1.12431897 
O       5.80589893      12.31953188       9.36330198      15.99940000      -0.04620298      -0.32962853       0.07740974 
O      10.43407235      11.69114936       2.32265059      15.99940000       0.57941454       1.69050879       2.65407982 
O       3.67599758      15.65403846      16.28382550      15.99940000       0.58011851       0.92596582      -0.89539695 
O       1.63107538       7.29232875      11.17194950      15.99940000       1.18826385       2.40091512      -2.20545395 
O       9.14858267       9.69182395       4.88913103      15.99940000       1.45414933      -0.92412954       0.92048243 
O      10.54949164      16.22447866       8.38222253      15.99940000       0.45171839      -0.81965996       0.81233720 
O       9.93662193       3.90385776       7.70705618      15.99940000       0.25541827       3.34042371      -4.62264235 
O      10.31867609       3.48109859       9.89393034      15.99940000       4.15800725       4.38498938       0.02072026 
O       8.23863441       3.03404376      11.12328170      15.99940000      -1.04201513      -0.50492532       2.37408026 
O       6.94010669      10.87619956       3.96374184      15.99940000       0.68635881      -1.41761473      -0.38536799 
O       4.56732019       7.21489403       7.86421188      15.99940000       1.37508714      -1.09068431       3.25128485 
O       6.92183333       7.57107047       9.01632376      15.99940000      -0.33217238      -0.86539449      -1.27196174 
O      13.92931486       8.42315303      10.94707043      15.99940000      -0.83618830       5.27009317      -3.66454288 
O       2.47763277       6.65437752       6.47704503      15.99940000      -2.12398572      -1.75040700      -0.14637521 
O       0.84687870      14.42769973       6.64139108      15.99940000       0.12488619      -0.21700342       0.73601786 
O      11.16170734       9.85593011       0.76243112      15.99940000      -1.70181573      -1.62614405       1.49833117 
O      13.82400777      11.25805291       6.42033479      15.99940000      -0.22309102      -0.39256451      -0.73936261 
O       7.46000530      14.65778864      10.68182903      15.99940000       3.82174116      -2.48951096      -0.76759204 
O       8.85879036       1.79987481       8.77797361      15.99940000      -1.36257024       0.43386208       0.30446515 
O      12.04380183      13.40143458       1.53658254      15.99940000       0.67610345       1.22055510       2.48856017 
O      15.88013791       9.33198514       2.16303054      15.99940000       0.17072870       0.27542994      -1.77154044 
O       0.41725265       6.19112856      14.93011355      15.99940000      -1.16215609      -0.92859374      -1.54843657 
O       0.01894437      10.73986036       7.00996270      15.99940000       0.32972598       0.76627101      -2.50126630 
O      10.05736422      15.60948601       5.81073770      15.99940000      -1.28250995      -1.22128401      -1.24171965 
O      10.16220165       0.99799899      10.72360113      15.99940000      -0.19711079       0.69579964       2.47233497 
O       6.91114858      11.91333851       7.07071277      15.99940000      -2.14197701      -0.28499470      -0.94879747 
O       0.02972839       7.19725312       6.75105039      15.99940000      -3.20626047       2.38175706       0.45733111 
O       3.50524288       5.22253778      11.51988550      15.99940000       1.21332516       0.33081638       0.72308727 
O      12.61747195      16.05317996       6.72195257      15.99940000      -2.05995754       1.83841612      -0.93904811 
O       5.03002221       2.73025185       7.46166788      15.99940000      -0.60192532       1.86087471      -1.27838101 
O      14.64476706      11.84665952       8.69891163      15.99940000      -0.72633946      -0.65168414       1.82228656 
O       2.96963378      13.17527727      16.06856269      15.99940000       0.89300531      -0.58317067       0.14148035 
O       0.66610377      14.79082465       3.88867096      15.99940000      -1.94820634      -1.28776194       1.61183560 
O       2.73344958       1.41982114       8.14556832      15.99940000       1.80997895       0.46324722      -0.49390454 
O       7.54743018       3.09814214       7.06356633      15.99940000       0.18077657       0.35568152      -0.44181579 
O       8.71198888       9.85806266       2.24412824      15.99940000      -1.16662621      -1.90451301       1.60516308 
O       0.09780780       1.75273079       1.32964207      15.99940000      -1.09727791       1.43358976       1.05174727 
O      11.23215754      10.94383096       6.06995084      15.99940000       1.91482494       0.97245008      -0.39585938 
O      13.82674578       9.56018090       0.09091679      15.99940000       4.96110057      -1.73054446       2.09731952 
O      10.66932155       8.48692566       6.98238630      15.99940000       0.17365051      -1.82380146       1.53867358 
O       4.58554609       3.64424357       2.60088488      15.99940000       0.97493299      -1.99314974      -0.39376110 
O       7.10365603      10.03638857       9.96146496      15.99940000       0.17688058       1.32320794      -0.51498656 
O       2.19846318       9.44968429       2.49621777      15.99940000       0.24163741       0.44619386       0.05576234 
O       4.99476125       0.76808820      14.39308991      15.99940000       0.66657777       1.50366338      -3.05846369 
O       6.97636360       8.27543795       3.99359464      15.99940000       2.71758324       0.12376056      -0.11925239 
O      12.18394450      15.75597594      10.38114583      15.99940000       0.93094065       0.05551809      -0.18545624 
O       0.41770897       9.73817400       4.49205786      15.99940000      -0.03138700      -2.86212860      -2.56663943 
O       0.54183547       1.06424662      15.50970838      15.99940000       0.48050421       2.14077913      -3.05811093 
O      14.63749834      15.39133708      13.79671536      15.99940000       0.85912897       1.52026422      -4.65631249 
O       7.00352606      14.96689624       2.44258787      15.99940000       0.21017534      -1.26520282      -1.85624544 
O       7.57310612      14.68778472       5.01128547      15.99940000       1.83858736      -0.70878577      -0.82682408 
O      15.49821094      11.00451420      13.54351723      15.99940000      -0.84225996      -0.85650875       0.48985017 
O       2.93854378       5.62138860       3.29417829      15.99940000       2.20487879      -0.88205035       0.51192514 
O       0.04863417      12.44863393       4.79566815      15.99940000      -0.79582301       0.80224639       0.00599298 
O       5.27690403      13.94352777       0.87947147      15.99940000       0.19692644      -2.60448581       0.72767952 
O      14.39961804       6.48071616       8.39378052      15.99940000      -1.55612674       0.89543937      -1.30612990 
O       5.74918529      12.95890370       3.87832455      15.99940000       0.06849367       3.07617833      -0.51797932 
O      14.90871166      14.62462001       5.71249858      15.99940000      -2.02519802       0.16095208       0.76991683 
O       2.95202240      14.66110064       8.39418556      15.99940000      -0.66462501      -0.14609059      -0.84176116 
O       0.54594623      11.73423360      11.38349503      15.99940000       1.78673798       2.35619721      -1.28220501 
O      12.29862359      12.12935628       4.13656236      15.99940000       0.25364215       1.28111615      -1.38116857 
O       3.46895786      11.93592525      11.25260115      15.99940000      -0.01975121       1.32370082      -1.32858180 
O       4.18695895       8.69622454       1.00927897      15.99940000       0.97160573      -0.84420963      -4.57641726 
O       8.55350201      12.86525595       8.85180347      15.99940000       0.70530681       0.02632424       1.02197030 
O       4.55456279      11.05997154       5.11331804      15.99940000       0.51354571       0.59498746      -0.13851715 
O       4.57846775       8.76733720      13.98801560      15.99940000       4.07145543      -0.86393230       1.07948819 
O       9.17667634      13.00355472       6.27296637      15.99940000      -0.34222462       0.36435179       0.04224271 
O      15.35697085      13.32042005      15.22373602      15.99940000      -1.41203415       0.11703841       0.00141539 
O      11.96817340       9.21728228      14.84029010      15.99940000      -0.62602273      -1.08030477      -3.02199362 
O      14.68014224       9.12023462       7.75896474      15.99940000      -1.30234318      -2.96740344       0.67519970 
O       4.91858593       0.14934056       7.92012764      15.99940000       2.05902140      -1.33185970       0.36204217 
O       3.56430019       9.16869527       6.40647655      15.99940000      -1.34323040       0.69117757       1.24612215 
O      11.74555178       8.35765820       9.49175109      15.99940000       0.40857785      -0.15608447      -0.05699904 
O       5.56723841       6.02271954       3.58498480      15.99940000       3.29223275      -3.75569003       0.43324553 
O      12.38918195       4.87827581       8.67002483      15.99940000       3.85560181      -2.07155218      -0.52375016 
O      14.10630989      14.93191829       8.37040578      15.99940000       0.66316951       0.22822243       4.66508432 
O       9.16622981      10.61888356       7.33543820      15.99940000       0.66392619      -2.49866358       0.17287660 
O       5.18464440      15.37903503       4.31826582      15.99940000       0.06254311      -1.08310393       1.17837410 
O       7.89304661      13.80010159       0.01359504      15.99940000       2.62123243      -1.62797827      -1.24599720 
240